ITEM: TIMESTEP
0
ITEM: NUMBER OF ATOMS
256
ITEM: BOX BOUNDS
0 6.25294
0 6.25294
0 6.25294
ITEM: ATOMS vx vy vz 
0.0494582 -0.386565 -0.323331 
0.0560458 0.441211 0.0769819 
0.330933 0.150961 -0.509472 
0.655959 -0.0960243 -0.138439 
0.0346683 -0.153036 0.0229828 
-0.441645 0.143563 -0.352671 
0.505422 0.358032 0.31003 
0.456369 0.209973 0.361398 
0.629141 0.136138 -0.139948 
-0.334961 -0.0838776 -0.71016 
-0.642503 -0.276237 1.13233 
-0.603888 0.00592214 -0.137185 
-0.307341 -0.00208986 -0.0319111 
0.4041 0.310511 0.156944 
0.641314 0.218921 0.622267 
0.0819153 0.68188 0.732289 
-0.510974 0.779694 -0.510327 
-0.200821 -0.393455 0.757241 
0.0194278 -0.19581 -0.063333 
-0.617464 0.223723 -0.340646 
-0.242615 -0.757228 -0.00558163 
-0.159685 0.154269 0.293719 
-0.0638291 0.00579223 -0.415562 
-0.866739 -0.221617 -0.585988 
-0.674507 0.0677628 0.282775 
-0.58337 0.224146 0.0994125 
-0.0736896 -0.141525 -0.478983 
-0.236955 0.482129 0.178883 
0.0419271 0.00112524 -0.0729217 
0.0195432 -0.435085 -0.868859 
-0.528253 0.243679 -0.304572 
-0.210779 0.165873 0.752219 
-0.289076 -0.154964 0.563175 
0.0405848 0.190106 0.591303 
0.402613 -0.138996 0.181218 
0.342025 -0.00980138 -0.889544 
0.238811 -0.229739 0.242372 
0.5699 -0.533972 0.446344 
0.0156051 -0.773363 0.103111 
0.0415897 -0.399106 0.819176 
-0.088557 -0.163235 -0.699487 
0.305792 -0.388354 0.247068 
0.337536 0.0617738 0.114191 
1.23306 0.153572 -0.188367 
0.888667 -0.436219 0.2262 
-0.396256 -0.580399 0.550121 
-0.522169 -0.216588 -0.384118 
-0.263682 -0.0144337 -0.570415 
0.995187 -0.465327 0.306879 
-0.104788 -0.381796 -0.408839 
0.0566133 0.376183 -0.393981 
-0.277707 -0.00267284 -1.05246 
-0.219566 0.39803 -0.189011 
-0.099411 -0.347184 0.148461 
0.0163526 0.0470414 0.165288 
0.462975 -0.655901 0.183744 
0.393039 -0.424899 0.140075 
0.56252 0.196338 0.197172 
0.335025 0.289698 -0.126857 
-0.312798 0.522373 -0.224261 
0.387776 0.441708 -0.364381 
-0.214769 0.222057 -0.406889 
-0.518134 -0.367782 0.549905 
0.274592 -0.282899 0.670209 
-0.612027 -0.464848 0.236643 
-0.319875 -0.220749 0.826664 
0.265588 0.24555 -0.589824 
0.0924214 -0.119768 0.0850131 
0.174363 -0.268929 -0.489363 
0.307547 -0.551963 -0.110449 
-0.465235 0.298999 0.212061 
0.142709 0.0485564 0.656604 
0.262055 -0.33803 0.527865 
-0.308628 0.157166 -0.249609 
-0.189781 0.377657 0.0488143 
0.524497 -0.0576192 0.149585 
-0.746113 0.0567064 -0.172748 
0.395502 0.50844 -0.483034 
0.131959 -0.153055 0.074968 
-0.0131995 0.025516 0.0263236 
0.0804014 0.0540661 -0.512781 
0.0473432 0.0750235 -1.0062 
0.240178 -0.0439209 0.476014 
0.475036 0.537421 0.706322 
-0.439831 -0.120457 -0.112637 
0.111763 -0.438134 0.225376 
0.214505 -0.619352 -0.279705 
-0.414311 0.220603 -0.462422 
0.389364 -0.823881 -0.509384 
-0.0325204 -0.191416 0.128111 
-0.290696 0.343214 -0.530586 
-0.0192873 -0.339406 0.119022 
-0.221235 0.152013 -0.133701 
-0.106867 0.48257 -0.626321 
-0.897722 -0.520569 0.301912 
-0.150256 -0.219722 0.462604 
-0.0228565 0.876052 -0.426299 
-0.319584 0.0722743 0.184164 
-0.390066 0.177875 0.168087 
0.0866565 -0.0199534 -0.0156241 
-0.167625 0.422708 -0.0674185 
-0.410034 0.522288 0.09939 
0.306505 0.512042 -0.0719935 
0.0141592 -0.110239 -0.0662478 
-0.329431 0.334988 -0.0918515 
-0.107895 -0.255711 0.334671 
-0.364271 -0.442522 -0.202603 
0.34579 0.492779 -0.211876 
0.23253 0.189795 -0.370914 
0.324257 0.17924 -0.155766 
1.07326 0.270141 0.27116 
-0.439461 0.708848 -0.345041 
-0.574134 0.24882 -1.05733 
0.405897 -0.146155 -0.15263 
0.0450614 0.211201 0.0681231 
0.497213 -0.047791 -0.316744 
-0.474934 -0.154176 1.2548 
0.102246 -0.239009 -0.29807 
-0.12852 0.177342 -0.211894 
0.192254 0.345218 0.253391 
0.342889 0.357041 -0.593355 
0.232757 0.427484 1.14926 
-0.0372712 -0.350557 -0.140912 
-0.584168 -0.0570406 -0.280922 
-0.64161 0.108459 0.294017 
0.0212805 0.255229 0.15266 
0.323179 0.172461 0.338343 
-0.229906 -0.637208 0.0911354 
0.0283598 -0.151373 0.140513 
-0.407287 0.104558 -0.0178456 
-0.313877 -0.0432125 -0.097978 
-0.112828 -0.199408 -0.445452 
0.147636 0.627184 0.625587 
0.635183 -0.0915473 0.0165878 
-0.305111 -0.728837 -0.177711 
-0.053494 -0.20994 0.675802 
-0.273569 0.582286 0.120795 
0.291868 1.01248 0.214743 
0.0519216 0.135473 -0.0968496 
0.535988 0.0342015 0.719353 
-0.542018 0.0685729 -0.0940559 
-0.11105 0.506722 -0.0827984 
-0.323829 -0.0258575 0.152698 
-0.308716 0.321586 -0.441712 
-0.117657 0.0733893 0.105005 
0.171369 0.0996893 -0.629932 
0.49757 -0.0139988 -0.87643 
-0.398432 -0.0649843 0.476908 
-0.724402 -0.274267 0.0452519 
-0.560085 -0.15134 -0.151175 
0.628833 0.687542 -0.490252 
-0.341057 -0.272713 -0.571187 
0.108145 -0.0610272 -0.428861 
-0.216255 0.51748 1.0424 
-0.00851315 -0.277757 -0.484984 
-0.122618 0.294285 -0.180133 
-0.132279 0.389961 0.363365 
-0.216511 -0.250001 -0.409552 
0.0384494 0.672456 -0.458751 
0.443494 0.483972 0.158022 
-0.122383 0.330449 -0.926297 
0.0898465 -0.0096421 0.219645 
-0.251648 0.26881 0.457749 
0.0138439 -0.229088 0.144571 
0.071388 0.0276663 -0.0503701 
-0.695958 0.135208 0.421224 
0.0565587 -0.970394 0.968121 
-0.316566 -0.318165 0.0898072 
0.0194906 -0.29901 0.255798 
0.957248 -0.493668 -0.00494195 
-0.597909 0.542558 -0.543129 
0.204407 -0.222551 -0.427065 
0.369833 -0.342025 0.450844 
-0.319376 -0.0107356 0.618812 
0.0260252 0.0730507 0.0341219 
-0.110808 0.151048 0.169194 
0.401344 -0.132719 0.773638 
-0.396731 0.514274 0.288298 
0.627913 -0.571903 0.207997 
0.657886 -0.363736 -0.184863 
0.113588 -0.040556 -0.9078 
0.72466 0.521933 0.0380324 
-0.589831 -0.125902 -0.114553 
-0.337112 -0.60176 -0.33941 
0.195857 0.301386 0.480703 
0.260759 -0.880921 0.244672 
0.939304 -0.958026 0.591344 
0.374726 0.0951455 -0.273587 
0.378208 0.707532 -0.0920462 
0.04526 0.0600667 0.102066 
0.415368 -0.195397 -0.107617 
-0.414257 0.18971 -0.275638 
0.278369 -0.347791 0.899142 
0.11817 0.229928 0.828016 
0.197726 0.0964358 -0.188911 
-0.418849 -0.196272 0.00666619 
0.199756 1.05032 -0.786041 
0.328684 -0.167644 -0.466242 
0.141393 0.104706 0.526571 
0.00307025 -0.177108 -0.235927 
-0.141151 -0.297865 0.0157131 
0.320006 0.264015 -0.831664 
0.0586785 -0.382115 1.04654 
-0.308276 0.144101 -0.00518357 
-0.533207 -0.00991011 0.653061 
-0.107239 -0.0875947 -0.56493 
-0.169029 -0.133615 -0.533755 
-0.0273655 0.0163297 0.141363 
0.117951 0.348235 0.186011 
0.122755 0.15177 0.411743 
0.41589 0.174765 -0.145802 
-0.354648 -0.16149 -0.109855 
-0.549218 -0.510396 0.0473487 
0.539416 1.24567 -0.504155 
-0.187709 0.261938 -1.11811 
-0.370298 0.275228 -0.0906705 
-0.098904 -0.323882 0.251202 
0.0224966 0.0385199 0.194 
0.224406 0.0809975 -0.281172 
0.634077 -0.351214 -0.0545792 
0.633876 -0.55893 -0.100038 
-0.201247 0.143124 -1.13343 
0.261705 -0.298783 -0.766274 
0.507526 -0.345173 0.366323 
-0.436775 -0.323509 0.388232 
-0.458362 0.342884 0.787988 
0.16474 -0.391409 0.259544 
-0.222499 0.899501 -0.303969 
-0.356167 0.283456 0.249227 
-0.245422 -0.43282 -0.493139 
0.179169 -0.309882 0.502423 
0.149892 -0.525372 0.617253 
-0.443546 -0.991375 -0.265858 
-0.285002 0.24948 0.147101 
-0.375221 0.190745 -0.0789508 
0.232796 -0.138045 0.512494 
-0.216251 0.104023 -0.0901575 
0.112479 0.371134 0.0317724 
0.255381 -0.203497 0.45682 
-0.269839 -0.409328 -0.43938 
0.331184 0.213217 -0.603112 
0.179298 -0.353995 -0.0537523 
-0.0178004 0.694612 0.2276 
0.0150761 -0.0967413 -0.484048 
0.182624 0.413195 0.803809 
0.628757 -0.131208 -0.299357 
0.357926 -0.30775 0.406443 
-0.489979 -0.141573 -0.218141 
-0.0580527 -0.279082 0.396675 
-0.579708 -0.487735 -0.345364 
-0.387409 -0.495007 0.266668 
1.00068 0.026819 0.219037 
-0.32697 0.647402 -0.00211642 
-0.156826 0.435562 -0.132516 
-0.0641349 -0.741105 -0.248481 
-0.0103904 0.17527 0.183777 
ITEM: TIMESTEP
32
ITEM: NUMBER OF ATOMS
256
ITEM: BOX BOUNDS
0 6.25294
0 6.25294
0 6.25294
ITEM: ATOMS vx vy vz 
-0.0127578 0.343359 -0.0549621 
0.144096 -0.0956396 -0.200107 
-0.232052 -0.325416 0.162284 
-0.265152 -0.0237757 -0.14979 
0.307842 0.000614333 0.0443362 
0.417755 -0.357675 0.179905 
-0.269113 -0.386792 -0.29451 
-0.338497 -0.163013 -0.472913 
-0.456632 -0.056665 -0.111769 
0.26477 -0.0754008 0.370552 
0.254988 0.40139 -0.683846 
0.274867 -0.0756569 -0.135218 
0.264937 0.153185 0.504634 
-0.484374 0.0253699 0.00308704 
-0.543638 -0.0758305 -0.429654 
-0.0637226 -0.321648 -0.483803 
0.221236 -0.380318 0.569939 
0.274335 0.471767 -0.413827 
-0.0112343 0.143939 0.192416 
0.380334 0.0377816 0.461013 
0.318233 0.497635 -0.26715 
0.0928835 -0.208191 -0.318487 
-0.0728905 0.0153201 0.25805 
0.442833 0.066948 0.176127 
0.350158 -0.0876869 -0.588788 
0.347923 -0.370566 -0.239792 
-0.157942 -0.0193073 0.1782 
0.122676 -0.392253 -0.366023 
-0.0858323 0.0625645 -0.339353 
-0.0114204 0.228073 0.304728 
0.247162 0.187625 0.299396 
-0.0971815 -0.062752 -0.547682 
0.255071 0.185552 -0.241332 
-0.077228 -0.158389 -0.499152 
-0.00361307 0.202261 0.00200387 
-0.0505062 -0.0191993 0.969006 
-0.271554 0.220838 -0.161925 
-0.332145 0.521464 -0.0813618 
-0.0976086 0.301061 -0.0145435 
0.0291079 0.161922 -0.435574 
0.058294 0.0897358 0.584389 
-0.0208394 0.172247 -0.149891 
0.0682627 -0.113954 -0.1375 
-0.676577 -0.377935 0.192612 
-0.637678 0.255509 -0.192246 
0.21835 0.262244 -0.425444 
0.224384 0.0374968 0.385157 
0.149311 -0.378917 0.578349 
-0.880339 0.0243616 -0.108362 
0.153179 0.129757 0.0641265 
0.0611717 -0.277017 0.371454 
0.401411 -0.095373 0.612323 
0.326012 -0.428607 0.11728 
0.0889599 0.297043 -0.0654255 
-0.0427685 -0.17624 0.168473 
-0.22292 0.363939 0.0291898 
-0.272277 0.14272 0.179744 
-0.253573 -0.0206202 -0.0340572 
-0.117012 -0.117722 -0.0802224 
-0.0187396 -0.311426 0.0484779 
-0.31204 -0.436272 -0.0801994 
-0.0558085 0.0907645 0.423703 
0.151767 0.0329537 -0.522857 
-0.247707 0.0532901 -0.528753 
0.704972 0.214329 -0.170873 
0.101461 0.182501 -0.619519 
0.0266871 -0.446551 0.419819 
-0.205731 -0.0670221 -0.0961722 
-0.106057 -0.0699287 0.0573398 
-0.352043 0.110096 -0.0416354 
0.554293 -0.189466 0.0863909 
-0.138031 -0.18922 -0.695457 
-0.281084 0.457994 -0.00443008 
0.296653 -0.0720741 0.336773 
0.208785 -0.0506437 0.286343 
-0.614197 0.287462 -0.0411984 
0.456065 0.0882818 0.160028 
-0.423422 -0.106362 0.288806 
-0.265809 0.154017 -0.138042 
-0.101886 0.0286182 -0.0270337 
-0.0201903 0.217638 0.582317 
-0.160603 0.252048 0.546153 
-0.313505 -0.0424331 -0.294924 
-0.21652 -0.39828 -0.490179 
0.247941 -0.0571579 0.143561 
-0.117792 0.199817 -0.0926023 
-0.28419 0.056635 0.0431815 
0.178167 -0.351436 0.266237 
-0.410323 0.623408 0.051375 
-0.142574 0.00361041 -0.550675 
0.244579 -0.158614 0.178213 
-0.023157 0.0163711 -0.52943 
0.185998 -0.0277922 -0.0298432 
-0.252872 -0.211189 0.59457 
0.434877 0.600542 -0.209429 
-0.00110746 0.258223 -0.510293 
0.313114 -0.623788 0.156889 
0.236779 0.13395 -0.224864 
0.157245 0.0735133 -0.200935 
-0.201457 0.22677 0.223595 
0.206849 -0.235042 0.213654 
0.274449 -0.13516 0.0176765 
-0.349402 -0.43814 0.0430395 
0.086122 0.0173549 0.171644 
0.319978 -0.642205 -0.0375325 
-0.00569565 0.270042 -0.18785 
0.0822989 0.33449 0.0669975 
-0.212207 -0.234942 0.265446 
-0.141176 -0.0101675 0.3015 
0.0502481 0.0725698 0.0150942 
-0.746659 0.182864 -0.365626 
0.478056 -0.457807 0.0547985 
0.380798 -0.223861 0.579849 
-0.0819742 -0.0974411 0.0413682 
-0.0234951 -0.143706 -0.140332 
-0.345845 -0.0945671 0.107216 
0.298867 0.286553 -0.591862 
-0.0117894 0.155814 0.134131 
0.27516 -0.153284 0.228833 
0.0664812 -0.134242 -0.0874592 
-0.00886796 -0.0602678 0.488148 
0.0152422 -0.124496 -0.551922 
0.0967034 0.469548 0.250255 
0.399573 0.192931 0.47615 
0.307224 -0.0442319 -0.243925 
-0.106908 -0.200585 -0.149867 
-0.201368 0.0259193 -0.403689 
0.0956239 0.510635 -0.166228 
-0.208763 0.240734 -0.246335 
0.105557 0.118467 -0.281795 
0.256322 0.289408 -0.0696681 
0.00740377 0.182655 0.187253 
-0.0827463 -0.610457 -0.332548 
-0.437806 -0.003573 0.066209 
0.146297 0.280937 0.510529 
0.172973 0.157794 -0.505961 
0.358184 -0.395918 0.22892 
-0.0202355 -0.641911 -0.24015 
0.0659414 0.0879293 0.0710133 
-0.27587 0.308086 -0.552261 
0.397921 0.127296 0.201155 
-0.00171037 -0.146961 0.290419 
0.00723425 0.210934 -0.116255 
-0.0226277 -0.0344386 0.261459 
-0.20294 0.0477528 -0.275423 
-0.12253 -0.0524119 0.551289 
-0.697305 0.077479 0.34415 
-0.0825624 0.112431 -0.512141 
0.585992 -0.0764265 -0.0982067 
0.0737327 -0.0295818 -0.0988537 
-0.421893 -0.377732 0.366057 
0.0542629 -0.0752198 0.356375 
-0.170413 0.139795 0.28511 
0.0828019 -0.457632 -0.651805 
0.0134146 -0.0748722 0.52821 
-0.259713 -0.123604 0.149204 
-0.0739812 0.00036728 -0.29514 
0.307973 0.20759 0.132923 
0.196098 -0.258036 0.267341 
-0.34986 -0.172671 -0.193593 
0.097418 -0.112434 0.68038 
0.215926 0.0431842 -0.118159 
0.0221822 -0.119361 -0.251629 
-0.101016 0.163161 0.00260017 
-0.364441 -0.00431653 0.222494 
0.401128 -0.257547 0.0108748 
-0.289726 0.266864 -0.563141 
0.127454 0.244842 0.233749 
-0.245595 0.00978833 -0.124833 
-0.695756 0.077998 0.0165752 
0.445433 -0.446797 0.490932 
-0.197211 0.0934957 0.317 
-0.275781 0.227378 -0.416027 
0.162395 0.0411071 -0.244169 
0.102793 -0.264032 -0.00609963 
0.206158 0.129427 0.094311 
-0.0423077 0.0996578 -0.239051 
0.348306 -0.346043 -0.234157 
-0.253891 0.510892 0.0425348 
-0.350065 0.439863 0.157488 
-0.0692212 -0.0409593 0.588622 
-0.320172 -0.284008 -0.0179311 
0.309509 0.155918 0.190366 
0.233244 0.519233 0.301745 
-0.0845068 -0.330655 -0.109816 
0.0154127 0.358691 0.0811621 
-0.536692 0.503209 -0.255141 
-0.00567888 0.0753206 0.345775 
-0.190467 -0.363517 -0.0462367 
0.0821659 0.117384 0.00887711 
-0.384225 0.359145 0.0933092 
0.339945 -0.112529 0.130012 
-0.151975 0.299064 -0.617926 
-0.00620364 -0.0832276 -0.592781 
0.242816 -0.30471 -0.0985695 
0.130376 0.296453 -0.291265 
0.0497315 -0.805279 0.312769 
-0.00151151 -0.0969706 0.0513802 
0.0897952 -0.25811 -0.444595 
-0.0659418 -0.0735538 -0.0947053 
0.157423 0.152519 -0.0186032 
-0.298236 -0.163105 0.350029 
-0.137574 0.261215 -0.8393 
0.22936 -0.118972 -0.195574 
0.269855 0.297176 -0.328334 
0.0694195 -0.018502 0.563008 
-0.0457956 0.342558 0.676435 
0.0971803 0.030634 0.154016 
0.0778579 -0.125195 -0.273617 
-0.23498 0.0826333 0.0054489 
-0.406309 0.0279227 0.285932 
0.0378848 0.257899 0.214504 
0.123382 0.265959 -0.518289 
-0.661531 -0.542792 0.175345 
-0.125492 -0.377405 0.287642 
0.254687 -0.118552 -0.243901 
0.191134 0.329854 -0.483412 
-0.0316166 -0.134017 -0.29042 
-0.180387 -0.182131 0.13726 
-0.331887 0.0797853 0.0607953 
-0.420466 0.393085 -0.0908325 
0.224356 -0.0156647 0.780196 
-0.049116 0.194328 0.407461 
-0.158076 0.280163 -0.519824 
0.184438 0.346029 -0.108802 
0.293868 -0.15318 -0.592055 
-0.314002 0.486585 -0.241701 
0.101568 -0.617755 0.576281 
-0.137391 -0.180294 -0.136083 
0.299353 0.269656 0.525828 
-0.11324 0.22679 -0.385038 
-0.02201 0.171189 -0.355498 
0.247978 0.497619 0.389483 
0.340261 -0.283859 0.0673449 
0.538652 -0.30261 0.125757 
-0.210061 -0.0260569 -0.0432431 
0.215965 -0.404101 0.0841123 
0.217609 -0.619008 -0.0693984 
-0.360725 0.276094 -0.182916 
0.385464 0.2138 0.28379 
-0.300977 -0.247353 0.383582 
-0.0627251 0.136822 -0.214282 
0.0606698 -0.440634 -0.0881942 
0.209156 0.0576599 0.289605 
0.0415614 -0.520215 -0.226098 
-0.28343 0.140209 0.379199 
0.0560559 -0.156072 -0.248325 
0.445568 0.124016 0.260124 
0.22647 -0.136321 -0.258835 
0.422952 0.102531 0.200151 
0.349897 0.297191 -0.0766794 
-0.697295 -0.113698 0.0592743 
0.349125 -0.481445 0.374403 
0.245159 -0.263006 0.408212 
0.224822 0.342263 0.128639 
-0.12905 0.268606 -0.0968063 
