LAMMPS (19 Feb 2013)
# 3d Lennard-Jones melt

### Geometry ###
units		lj
atom_style	atomic
read_data	in.pos
  orthogonal box = (0 0 0) to (6.25294 6.25294 6.25294)
  1 by 1 by 1 MPI processor grid
  256 atoms

### LJ Potentials ###
pair_style	lj/cut 2.5
pair_coeff	* * 1.0 1.0
pair_modify	shift yes

### Variables ###
# LJ Parameters
variable kB				equal 1.3806504e-23
variable sigma_Ar		equal 3.4e-10
variable eps_Ar			equal 1.67e-21
variable mass_Ar		equal 6.63e-26
variable tau_Ar			equal 2.1423e-12

variable seed	equal 11111
variable temp	equal 20*(${kB}/${eps_Ar})
variable temp	equal 20*(1.3806504000000001236e-23/${eps_Ar})
variable temp	equal 20*(1.3806504000000001236e-23/1.6699999999999999942e-21)
variable dt		equal 0.002

# Velocity variables
variable	vx atom vx
variable	vy atom vy
variable	vz atom vz

###--- MAIN ---###
velocity				all create ${temp} ${seed} dist gaussian mom yes
velocity				all create 0.16534735329341321286 ${seed} dist gaussian mom yes
velocity				all create 0.16534735329341321286 11111 dist gaussian mom yes
fix		1 all nve
#dump 		vel all custom 32 dump.vel vx vy vz
#dump_modify 	vel sort id
#run		32
#undump 		vel
#unfix 1
run 32
Memory usage per processor = 1.63113 Mbytes
Step Temp E_pair E_mol TotEng Press 
       0   0.16534735   -7.4420341            0   -7.1949819   -1.4753638 
      32  0.085612437   -7.3227355            0   -7.1948185  -0.80257682 
Loop time of 0.0143709 on 1 procs for 32 steps with 256 atoms

Pair  time (%) = 0.0135369 (94.1967)
Neigh time (%) = 0 (0)
Comm  time (%) = 0.000428915 (2.9846)
Outpt time (%) = 1.50204e-05 (0.104519)
Other time (%) = 0.000390053 (2.71418)

Nlocal:    256 ave 256 max 256 min
Histogram: 1 0 0 0 0 0 0 0 0 0
Nghost:    1431 ave 1431 max 1431 min
Histogram: 1 0 0 0 0 0 0 0 0 0
Neighs:    11008 ave 11008 max 11008 min
Histogram: 1 0 0 0 0 0 0 0 0 0

Total # of neighbors = 11008
Ave neighs/atom = 43
Neighbor list builds = 0
Dangerous builds = 0
run 32
Memory usage per processor = 1.63113 Mbytes
Step Temp E_pair E_mol TotEng Press 
      32  0.085612437   -7.3227355            0   -7.1948185  -0.80257682 
      64  0.075259037   -7.3071681            0   -7.1947205  -0.72553661 
Loop time of 0.0143409 on 1 procs for 32 steps with 256 atoms

Pair  time (%) = 0.0135 (94.1363)
Neigh time (%) = 0 (0)
Comm  time (%) = 0.000442028 (3.08229)
Outpt time (%) = 1.50204e-05 (0.104738)
Other time (%) = 0.000383854 (2.67664)

Nlocal:    256 ave 256 max 256 min
Histogram: 1 0 0 0 0 0 0 0 0 0
Nghost:    1431 ave 1431 max 1431 min
Histogram: 1 0 0 0 0 0 0 0 0 0
Neighs:    11005 ave 11005 max 11005 min
Histogram: 1 0 0 0 0 0 0 0 0 0

Total # of neighbors = 11005
Ave neighs/atom = 42.9883
Neighbor list builds = 0
Dangerous builds = 0
run 32
Memory usage per processor = 1.63113 Mbytes
Step Temp E_pair E_mol TotEng Press 
      64  0.075259037   -7.3071681            0   -7.1947205  -0.72553661 
      96   0.07533067   -7.3072729            0   -7.1947183  -0.72521265 
Loop time of 0.014333 on 1 procs for 32 steps with 256 atoms

Pair  time (%) = 0.0134861 (94.0915)
Neigh time (%) = 0 (0)
Comm  time (%) = 0.000436783 (3.04739)
Outpt time (%) = 1.40667e-05 (0.098142)
Other time (%) = 0.000396013 (2.76295)

Nlocal:    256 ave 256 max 256 min
Histogram: 1 0 0 0 0 0 0 0 0 0
Nghost:    1431 ave 1431 max 1431 min
Histogram: 1 0 0 0 0 0 0 0 0 0
Neighs:    11009 ave 11009 max 11009 min
Histogram: 1 0 0 0 0 0 0 0 0 0

Total # of neighbors = 11009
Ave neighs/atom = 43.0039
Neighbor list builds = 0
Dangerous builds = 0
run 32
Memory usage per processor = 1.63113 Mbytes
Step Temp E_pair E_mol TotEng Press 
      96   0.07533067   -7.3072729            0   -7.1947183  -0.72521265 
     128    0.0805821   -7.3151538            0   -7.1947528  -0.76334191 
Loop time of 0.0143371 on 1 procs for 32 steps with 256 atoms

Pair  time (%) = 0.0135052 (94.198)
Neigh time (%) = 0 (0)
Comm  time (%) = 0.00043869 (3.05983)
Outpt time (%) = 1.28746e-05 (0.0897994)
Other time (%) = 0.000380278 (2.65241)

Nlocal:    256 ave 256 max 256 min
Histogram: 1 0 0 0 0 0 0 0 0 0
Nghost:    1431 ave 1431 max 1431 min
Histogram: 1 0 0 0 0 0 0 0 0 0
Neighs:    11007 ave 11007 max 11007 min
Histogram: 1 0 0 0 0 0 0 0 0 0

Total # of neighbors = 11007
Ave neighs/atom = 42.9961
Neighbor list builds = 0
Dangerous builds = 0
run 32
Memory usage per processor = 1.63113 Mbytes
Step Temp E_pair E_mol TotEng Press 
     128    0.0805821   -7.3151538            0   -7.1947528  -0.76334191 
     160  0.087098779   -7.3249153            0   -7.1947775  -0.81741933 
Loop time of 0.0155158 on 1 procs for 32 steps with 256 atoms

Pair  time (%) = 0.013509 (87.0663)
Neigh time (%) = 0.00112391 (7.24362)
Comm  time (%) = 0.000476837 (3.07324)
Outpt time (%) = 1.50204e-05 (0.0968069)
Other time (%) = 0.000391006 (2.52005)

Nlocal:    256 ave 256 max 256 min
Histogram: 1 0 0 0 0 0 0 0 0 0
Nghost:    1431 ave 1431 max 1431 min
Histogram: 1 0 0 0 0 0 0 0 0 0
Neighs:    11008 ave 11008 max 11008 min
Histogram: 1 0 0 0 0 0 0 0 0 0

Total # of neighbors = 11008
Ave neighs/atom = 43
Neighbor list builds = 1
Dangerous builds = 0
run 32
Memory usage per processor = 1.63113 Mbytes
Step Temp E_pair E_mol TotEng Press 
     160  0.087098779   -7.3249153            0   -7.1947775  -0.81741933 
     192  0.069926113    -7.299219            0   -7.1947396  -0.68354901 
Loop time of 0.014303 on 1 procs for 32 steps with 256 atoms

Pair  time (%) = 0.0134718 (94.1891)
Neigh time (%) = 0 (0)
Comm  time (%) = 0.000440121 (3.07713)
Outpt time (%) = 1.40667e-05 (0.0983481)
Other time (%) = 0.00037694 (2.6354)

Nlocal:    256 ave 256 max 256 min
Histogram: 1 0 0 0 0 0 0 0 0 0
Nghost:    1431 ave 1431 max 1431 min
Histogram: 1 0 0 0 0 0 0 0 0 0
Neighs:    11008 ave 11008 max 11008 min
Histogram: 1 0 0 0 0 0 0 0 0 0

Total # of neighbors = 11008
Ave neighs/atom = 43
Neighbor list builds = 0
Dangerous builds = 0
run 32
Memory usage per processor = 1.63113 Mbytes
Step Temp E_pair E_mol TotEng Press 
     192  0.069926113    -7.299219            0   -7.1947396  -0.68354901 
     224  0.091523806   -7.3315106            0   -7.1947611  -0.86565784 
Loop time of 0.0143409 on 1 procs for 32 steps with 256 atoms

Pair  time (%) = 0.0134928 (94.0865)
Neigh time (%) = 0 (0)
Comm  time (%) = 0.000425816 (2.96924)
Outpt time (%) = 1.78814e-05 (0.124688)
Other time (%) = 0.000404358 (2.81962)

Nlocal:    256 ave 256 max 256 min
Histogram: 1 0 0 0 0 0 0 0 0 0
Nghost:    1431 ave 1431 max 1431 min
Histogram: 1 0 0 0 0 0 0 0 0 0
Neighs:    11006 ave 11006 max 11006 min
Histogram: 1 0 0 0 0 0 0 0 0 0

Total # of neighbors = 11006
Ave neighs/atom = 42.9922
Neighbor list builds = 0
Dangerous builds = 0
run 32
Memory usage per processor = 1.63113 Mbytes
Step Temp E_pair E_mol TotEng Press 
     224  0.091523806   -7.3315106            0   -7.1947611  -0.86565784 
     256  0.078716905   -7.3123581            0   -7.1947439  -0.75047076 
Loop time of 0.0143359 on 1 procs for 32 steps with 256 atoms

Pair  time (%) = 0.0135086 (94.2291)
Neigh time (%) = 0 (0)
Comm  time (%) = 0.00043416 (3.02849)
Outpt time (%) = 1.40667e-05 (0.0981224)
Other time (%) = 0.000379086 (2.64431)

Nlocal:    256 ave 256 max 256 min
Histogram: 1 0 0 0 0 0 0 0 0 0
Nghost:    1431 ave 1431 max 1431 min
Histogram: 1 0 0 0 0 0 0 0 0 0
Neighs:    11008 ave 11008 max 11008 min
Histogram: 1 0 0 0 0 0 0 0 0 0

Total # of neighbors = 11008
Ave neighs/atom = 43
Neighbor list builds = 0
Dangerous builds = 0
run 32
Memory usage per processor = 1.63113 Mbytes
Step Temp E_pair E_mol TotEng Press 
     256  0.078716905   -7.3123581            0   -7.1947439  -0.75047076 
     288  0.087935178   -7.3261703            0   -7.1947828  -0.82558464 
Loop time of 0.0143321 on 1 procs for 32 steps with 256 atoms

Pair  time (%) = 0.0134954 (94.1627)
Neigh time (%) = 0 (0)
Comm  time (%) = 0.000437737 (3.05425)
Outpt time (%) = 1.78814e-05 (0.124765)
Other time (%) = 0.000380993 (2.65833)

Nlocal:    256 ave 256 max 256 min
Histogram: 1 0 0 0 0 0 0 0 0 0
Nghost:    1431 ave 1431 max 1431 min
Histogram: 1 0 0 0 0 0 0 0 0 0
Neighs:    11007 ave 11007 max 11007 min
Histogram: 1 0 0 0 0 0 0 0 0 0

Total # of neighbors = 11007
Ave neighs/atom = 42.9961
Neighbor list builds = 0
Dangerous builds = 0
run 32
Memory usage per processor = 1.63113 Mbytes
Step Temp E_pair E_mol TotEng Press 
     288  0.087935178   -7.3261703            0   -7.1947828  -0.82558464 
     320  0.092446918   -7.3328944            0   -7.1947657  -0.87254544 
Loop time of 0.0143011 on 1 procs for 32 steps with 256 atoms

Pair  time (%) = 0.0134711 (94.1967)
Neigh time (%) = 0 (0)
Comm  time (%) = 0.000436306 (3.05086)
Outpt time (%) = 1.3113e-05 (0.0916926)
Other time (%) = 0.000380516 (2.66075)

Nlocal:    256 ave 256 max 256 min
Histogram: 1 0 0 0 0 0 0 0 0 0
Nghost:    1431 ave 1431 max 1431 min
Histogram: 1 0 0 0 0 0 0 0 0 0
Neighs:    11008 ave 11008 max 11008 min
Histogram: 1 0 0 0 0 0 0 0 0 0

Total # of neighbors = 11008
Ave neighs/atom = 43
Neighbor list builds = 0
Dangerous builds = 0
run 32
Memory usage per processor = 1.63113 Mbytes
Step Temp E_pair E_mol TotEng Press 
     320  0.092446918   -7.3328944            0   -7.1947657  -0.87254544 
     352   0.07512264   -7.3069947            0   -7.1947509  -0.73038866 
Loop time of 0.0143659 on 1 procs for 32 steps with 256 atoms

Pair  time (%) = 0.0135443 (94.281)
Neigh time (%) = 0 (0)
Comm  time (%) = 0.000422955 (2.94415)
Outpt time (%) = 1.40667e-05 (0.0979172)
Other time (%) = 0.000384569 (2.67696)

Nlocal:    256 ave 256 max 256 min
Histogram: 1 0 0 0 0 0 0 0 0 0
Nghost:    1431 ave 1431 max 1431 min
Histogram: 1 0 0 0 0 0 0 0 0 0
Neighs:    11008 ave 11008 max 11008 min
Histogram: 1 0 0 0 0 0 0 0 0 0

Total # of neighbors = 11008
Ave neighs/atom = 43
Neighbor list builds = 0
Dangerous builds = 0
run 32
Memory usage per processor = 1.63113 Mbytes
Step Temp E_pair E_mol TotEng Press 
     352   0.07512264   -7.3069947            0   -7.1947509  -0.73038866 
     384   0.08144663   -7.3164375            0   -7.1947447  -0.77403448 
Loop time of 0.0143259 on 1 procs for 32 steps with 256 atoms

Pair  time (%) = 0.0134954 (94.2034)
Neigh time (%) = 0 (0)
Comm  time (%) = 0.000424385 (2.96237)
Outpt time (%) = 1.28746e-05 (0.0898697)
Other time (%) = 0.000393152 (2.74435)

Nlocal:    256 ave 256 max 256 min
Histogram: 1 0 0 0 0 0 0 0 0 0
Nghost:    1431 ave 1431 max 1431 min
Histogram: 1 0 0 0 0 0 0 0 0 0
Neighs:    11004 ave 11004 max 11004 min
Histogram: 1 0 0 0 0 0 0 0 0 0

Total # of neighbors = 11004
Ave neighs/atom = 42.9844
Neighbor list builds = 0
Dangerous builds = 0
run 32
Memory usage per processor = 1.63113 Mbytes
Step Temp E_pair E_mol TotEng Press 
     384   0.08144663   -7.3164375            0   -7.1947447  -0.77403448 
     416  0.074472345   -7.3059984            0   -7.1947262  -0.71458495 
Loop time of 0.014322 on 1 procs for 32 steps with 256 atoms

Pair  time (%) = 0.0134897 (94.1885)
Neigh time (%) = 0 (0)
Comm  time (%) = 0.00042963 (2.99978)
Outpt time (%) = 1.28746e-05 (0.0898936)
Other time (%) = 0.000389814 (2.72178)

Nlocal:    256 ave 256 max 256 min
Histogram: 1 0 0 0 0 0 0 0 0 0
Nghost:    1431 ave 1431 max 1431 min
Histogram: 1 0 0 0 0 0 0 0 0 0
Neighs:    11007 ave 11007 max 11007 min
Histogram: 1 0 0 0 0 0 0 0 0 0

Total # of neighbors = 11007
Ave neighs/atom = 42.9961
Neighbor list builds = 0
Dangerous builds = 0
run 32
Memory usage per processor = 1.63113 Mbytes
Step Temp E_pair E_mol TotEng Press 
     416  0.074472345   -7.3059984            0   -7.1947262  -0.71458495 
     448  0.079255509   -7.3131612            0   -7.1947423  -0.75792085 
Loop time of 0.0143249 on 1 procs for 32 steps with 256 atoms

Pair  time (%) = 0.0134959 (94.213)
Neigh time (%) = 0 (0)
Comm  time (%) = 0.000418663 (2.92262)
Outpt time (%) = 1.28746e-05 (0.0898757)
Other time (%) = 0.000397444 (2.7745)

Nlocal:    256 ave 256 max 256 min
Histogram: 1 0 0 0 0 0 0 0 0 0
Nghost:    1431 ave 1431 max 1431 min
Histogram: 1 0 0 0 0 0 0 0 0 0
Neighs:    11006 ave 11006 max 11006 min
Histogram: 1 0 0 0 0 0 0 0 0 0

Total # of neighbors = 11006
Ave neighs/atom = 42.9922
Neighbor list builds = 0
Dangerous builds = 0
run 32
Memory usage per processor = 1.63113 Mbytes
Step Temp E_pair E_mol TotEng Press 
     448  0.079255509   -7.3131612            0   -7.1947423  -0.75792085 
     480  0.084705144   -7.3213212            0   -7.1947598  -0.80328517 
Loop time of 0.0143268 on 1 procs for 32 steps with 256 atoms

Pair  time (%) = 0.0134873 (94.1406)
Neigh time (%) = 0 (0)
Comm  time (%) = 0.000429869 (3.00045)
Outpt time (%) = 1.69277e-05 (0.118154)
Other time (%) = 0.000392675 (2.74084)

Nlocal:    256 ave 256 max 256 min
Histogram: 1 0 0 0 0 0 0 0 0 0
Nghost:    1431 ave 1431 max 1431 min
Histogram: 1 0 0 0 0 0 0 0 0 0
Neighs:    11007 ave 11007 max 11007 min
Histogram: 1 0 0 0 0 0 0 0 0 0

Total # of neighbors = 11007
Ave neighs/atom = 42.9961
Neighbor list builds = 0
Dangerous builds = 0
run 32
Memory usage per processor = 1.63113 Mbytes
Step Temp E_pair E_mol TotEng Press 
     480  0.084705144   -7.3213212            0   -7.1947598  -0.80328517 
     512  0.079834359   -7.3140399            0   -7.1947561  -0.75797396 
Loop time of 0.014348 on 1 procs for 32 steps with 256 atoms

Pair  time (%) = 0.0135124 (94.1758)
Neigh time (%) = 0 (0)
Comm  time (%) = 0.000433207 (3.01928)
Outpt time (%) = 1.40667e-05 (0.0980392)
Other time (%) = 0.000388384 (2.70688)

Nlocal:    256 ave 256 max 256 min
Histogram: 1 0 0 0 0 0 0 0 0 0
Nghost:    1431 ave 1431 max 1431 min
Histogram: 1 0 0 0 0 0 0 0 0 0
Neighs:    11008 ave 11008 max 11008 min
Histogram: 1 0 0 0 0 0 0 0 0 0

Total # of neighbors = 11008
Ave neighs/atom = 43
Neighbor list builds = 0
Dangerous builds = 0
run 32
Memory usage per processor = 1.63113 Mbytes
Step Temp E_pair E_mol TotEng Press 
     512  0.079834359   -7.3140399            0   -7.1947561  -0.75797396 
     544  0.088408367   -7.3268567            0   -7.1947622    -0.829675 
Loop time of 0.014359 on 1 procs for 32 steps with 256 atoms

Pair  time (%) = 0.0135241 (94.1852)
Neigh time (%) = 0 (0)
Comm  time (%) = 0.000435591 (3.03357)
Outpt time (%) = 1.40667e-05 (0.0979643)
Other time (%) = 0.000385284 (2.68323)

Nlocal:    256 ave 256 max 256 min
Histogram: 1 0 0 0 0 0 0 0 0 0
Nghost:    1431 ave 1431 max 1431 min
Histogram: 1 0 0 0 0 0 0 0 0 0
Neighs:    11008 ave 11008 max 11008 min
Histogram: 1 0 0 0 0 0 0 0 0 0

Total # of neighbors = 11008
Ave neighs/atom = 43
Neighbor list builds = 0
Dangerous builds = 0
run 32
Memory usage per processor = 1.63113 Mbytes
Step Temp E_pair E_mol TotEng Press 
     544  0.088408367   -7.3268567            0   -7.1947622    -0.829675 
     576  0.078777342   -7.3124529            0   -7.1947485  -0.76044701 
Loop time of 0.0143819 on 1 procs for 32 steps with 256 atoms

Pair  time (%) = 0.0135546 (94.2475)
Neigh time (%) = 0 (0)
Comm  time (%) = 0.000424862 (2.95415)
Outpt time (%) = 1.81198e-05 (0.125991)
Other time (%) = 0.000384331 (2.67233)

Nlocal:    256 ave 256 max 256 min
Histogram: 1 0 0 0 0 0 0 0 0 0
Nghost:    1431 ave 1431 max 1431 min
Histogram: 1 0 0 0 0 0 0 0 0 0
Neighs:    11008 ave 11008 max 11008 min
Histogram: 1 0 0 0 0 0 0 0 0 0

Total # of neighbors = 11008
Ave neighs/atom = 43
Neighbor list builds = 0
Dangerous builds = 0
run 32
Memory usage per processor = 1.63113 Mbytes
Step Temp E_pair E_mol TotEng Press 
     576  0.078777342   -7.3124529            0   -7.1947485  -0.76044701 
     608  0.083683254   -7.3198133            0   -7.1947787  -0.79226485 
Loop time of 0.0143821 on 1 procs for 32 steps with 256 atoms

Pair  time (%) = 0.0135627 (94.3023)
Neigh time (%) = 0 (0)
Comm  time (%) = 0.000422716 (2.93918)
Outpt time (%) = 1.3113e-05 (0.0911758)
Other time (%) = 0.000383615 (2.66731)

Nlocal:    256 ave 256 max 256 min
Histogram: 1 0 0 0 0 0 0 0 0 0
Nghost:    1431 ave 1431 max 1431 min
Histogram: 1 0 0 0 0 0 0 0 0 0
Neighs:    11007 ave 11007 max 11007 min
Histogram: 1 0 0 0 0 0 0 0 0 0

Total # of neighbors = 11007
Ave neighs/atom = 42.9961
Neighbor list builds = 0
Dangerous builds = 0
run 32
Memory usage per processor = 1.63113 Mbytes
Step Temp E_pair E_mol TotEng Press 
     608  0.083683254   -7.3198133            0   -7.1947787  -0.79226485 
     640  0.083663408   -7.3197581            0   -7.1947532  -0.79364844 
Loop time of 0.0143709 on 1 procs for 32 steps with 256 atoms

Pair  time (%) = 0.0135434 (94.2415)
Neigh time (%) = 0 (0)
Comm  time (%) = 0.000433683 (3.01778)
Outpt time (%) = 1.28746e-05 (0.0895879)
Other time (%) = 0.000380993 (2.65114)

Nlocal:    256 ave 256 max 256 min
Histogram: 1 0 0 0 0 0 0 0 0 0
Nghost:    1431 ave 1431 max 1431 min
Histogram: 1 0 0 0 0 0 0 0 0 0
Neighs:    11008 ave 11008 max 11008 min
Histogram: 1 0 0 0 0 0 0 0 0 0

Total # of neighbors = 11008
Ave neighs/atom = 43
Neighbor list builds = 0
Dangerous builds = 0
run 32
Memory usage per processor = 1.63113 Mbytes
Step Temp E_pair E_mol TotEng Press 
     640  0.083663408   -7.3197581            0   -7.1947532  -0.79364844 
     672  0.079781763   -7.3139481            0   -7.1947429  -0.76040681 
Loop time of 0.0143661 on 1 procs for 32 steps with 256 atoms

Pair  time (%) = 0.013541 (94.2562)
Neigh time (%) = 0 (0)
Comm  time (%) = 0.000432253 (3.00883)
Outpt time (%) = 1.40667e-05 (0.0979156)
Other time (%) = 0.000378847 (2.63708)

Nlocal:    256 ave 256 max 256 min
Histogram: 1 0 0 0 0 0 0 0 0 0
Nghost:    1431 ave 1431 max 1431 min
Histogram: 1 0 0 0 0 0 0 0 0 0
Neighs:    11007 ave 11007 max 11007 min
Histogram: 1 0 0 0 0 0 0 0 0 0

Total # of neighbors = 11007
Ave neighs/atom = 42.9961
Neighbor list builds = 0
Dangerous builds = 0
run 32
Memory usage per processor = 1.63113 Mbytes
Step Temp E_pair E_mol TotEng Press 
     672  0.079781763   -7.3139481            0   -7.1947429  -0.76040681 
     704   0.07315358   -7.3040231            0   -7.1947214  -0.70855705 
Loop time of 0.0143399 on 1 procs for 32 steps with 256 atoms

Pair  time (%) = 0.0135069 (94.1908)
Neigh time (%) = 0 (0)
Comm  time (%) = 0.000426292 (2.97277)
Outpt time (%) = 1.28746e-05 (0.0897815)
Other time (%) = 0.000393867 (2.74665)

Nlocal:    256 ave 256 max 256 min
Histogram: 1 0 0 0 0 0 0 0 0 0
Nghost:    1431 ave 1431 max 1431 min
Histogram: 1 0 0 0 0 0 0 0 0 0
Neighs:    11007 ave 11007 max 11007 min
Histogram: 1 0 0 0 0 0 0 0 0 0

Total # of neighbors = 11007
Ave neighs/atom = 42.9961
Neighbor list builds = 0
Dangerous builds = 0
run 32
Memory usage per processor = 1.63113 Mbytes
Step Temp E_pair E_mol TotEng Press 
     704   0.07315358   -7.3040231            0   -7.1947214  -0.70855705 
     736  0.083029507   -7.3187997            0    -7.194742  -0.78817821 
Loop time of 0.014359 on 1 procs for 32 steps with 256 atoms

Pair  time (%) = 0.0135331 (94.2483)
Neigh time (%) = 0 (0)
Comm  time (%) = 0.000432014 (3.00867)
Outpt time (%) = 1.28746e-05 (0.0896623)
Other time (%) = 0.000380993 (2.65334)

Nlocal:    256 ave 256 max 256 min
Histogram: 1 0 0 0 0 0 0 0 0 0
Nghost:    1431 ave 1431 max 1431 min
Histogram: 1 0 0 0 0 0 0 0 0 0
Neighs:    11008 ave 11008 max 11008 min
Histogram: 1 0 0 0 0 0 0 0 0 0

Total # of neighbors = 11008
Ave neighs/atom = 43
Neighbor list builds = 0
Dangerous builds = 0
run 32
Memory usage per processor = 1.63113 Mbytes
Step Temp E_pair E_mol TotEng Press 
     736  0.083029507   -7.3187997            0    -7.194742  -0.78817821 
     768  0.095022549   -7.3367518            0   -7.1947747  -0.88489863 
Loop time of 0.014354 on 1 procs for 32 steps with 256 atoms

Pair  time (%) = 0.0135102 (94.1218)
Neigh time (%) = 0 (0)
Comm  time (%) = 0.00043726 (3.04626)
Outpt time (%) = 1.78814e-05 (0.124574)
Other time (%) = 0.000388622 (2.70742)

Nlocal:    256 ave 256 max 256 min
Histogram: 1 0 0 0 0 0 0 0 0 0
Nghost:    1431 ave 1431 max 1431 min
Histogram: 1 0 0 0 0 0 0 0 0 0
Neighs:    11007 ave 11007 max 11007 min
Histogram: 1 0 0 0 0 0 0 0 0 0

Total # of neighbors = 11007
Ave neighs/atom = 42.9961
Neighbor list builds = 0
Dangerous builds = 0
run 32
Memory usage per processor = 1.63113 Mbytes
Step Temp E_pair E_mol TotEng Press 
     768  0.095022549   -7.3367518            0   -7.1947747  -0.88489863 
     800  0.086393392    -7.323857            0   -7.1947732  -0.81573338 
Loop time of 0.0143869 on 1 procs for 32 steps with 256 atoms

Pair  time (%) = 0.0135336 (94.0689)
Neigh time (%) = 0 (0)
Comm  time (%) = 0.000440836 (3.06415)
Outpt time (%) = 2.00272e-05 (0.139204)
Other time (%) = 0.000392437 (2.72774)

Nlocal:    256 ave 256 max 256 min
Histogram: 1 0 0 0 0 0 0 0 0 0
Nghost:    1431 ave 1431 max 1431 min
Histogram: 1 0 0 0 0 0 0 0 0 0
Neighs:    11008 ave 11008 max 11008 min
Histogram: 1 0 0 0 0 0 0 0 0 0

Total # of neighbors = 11008
Ave neighs/atom = 43
Neighbor list builds = 0
Dangerous builds = 0
run 32
Memory usage per processor = 1.63113 Mbytes
Step Temp E_pair E_mol TotEng Press 
     800  0.086393392    -7.323857            0   -7.1947732  -0.81573338 
     832  0.078815068   -7.3125087            0   -7.1947479    -0.753904 
Loop time of 0.0143559 on 1 procs for 32 steps with 256 atoms

Pair  time (%) = 0.0135164 (94.1524)
Neigh time (%) = 0 (0)
Comm  time (%) = 0.000425577 (2.96448)
Outpt time (%) = 1.40667e-05 (0.0979855)
Other time (%) = 0.000399828 (2.78511)

Nlocal:    256 ave 256 max 256 min
Histogram: 1 0 0 0 0 0 0 0 0 0
Nghost:    1431 ave 1431 max 1431 min
Histogram: 1 0 0 0 0 0 0 0 0 0
Neighs:    11008 ave 11008 max 11008 min
Histogram: 1 0 0 0 0 0 0 0 0 0

Total # of neighbors = 11008
Ave neighs/atom = 43
Neighbor list builds = 0
Dangerous builds = 0
run 32
Memory usage per processor = 1.63113 Mbytes
Step Temp E_pair E_mol TotEng Press 
     832  0.078815068   -7.3125087            0   -7.1947479    -0.753904 
     864  0.084332282   -7.3207582            0    -7.194754  -0.79876237 
Loop time of 0.014354 on 1 procs for 32 steps with 256 atoms

Pair  time (%) = 0.0135329 (94.2795)
Neigh time (%) = 0 (0)
Comm  time (%) = 0.000424862 (2.95989)
Outpt time (%) = 1.3113e-05 (0.0913545)
Other time (%) = 0.000383139 (2.66921)

Nlocal:    256 ave 256 max 256 min
Histogram: 1 0 0 0 0 0 0 0 0 0
Nghost:    1431 ave 1431 max 1431 min
Histogram: 1 0 0 0 0 0 0 0 0 0
Neighs:    11007 ave 11007 max 11007 min
Histogram: 1 0 0 0 0 0 0 0 0 0

Total # of neighbors = 11007
Ave neighs/atom = 42.9961
Neighbor list builds = 0
Dangerous builds = 0
run 32
Memory usage per processor = 1.63113 Mbytes
Step Temp E_pair E_mol TotEng Press 
     864  0.084332282   -7.3207582            0    -7.194754  -0.79876237 
     896  0.084725558   -7.3213676            0   -7.1947757  -0.79940368 
Loop time of 0.0143809 on 1 procs for 32 steps with 256 atoms

Pair  time (%) = 0.0135534 (94.2455)
Neigh time (%) = 0 (0)
Comm  time (%) = 0.000432014 (3.00408)
Outpt time (%) = 1.28746e-05 (0.0895255)
Other time (%) = 0.000382662 (2.6609)

Nlocal:    256 ave 256 max 256 min
Histogram: 1 0 0 0 0 0 0 0 0 0
Nghost:    1431 ave 1431 max 1431 min
Histogram: 1 0 0 0 0 0 0 0 0 0
Neighs:    11007 ave 11007 max 11007 min
Histogram: 1 0 0 0 0 0 0 0 0 0

Total # of neighbors = 11007
Ave neighs/atom = 42.9961
Neighbor list builds = 0
Dangerous builds = 0
run 32
Memory usage per processor = 1.63113 Mbytes
Step Temp E_pair E_mol TotEng Press 
     896  0.084725558   -7.3213676            0   -7.1947757  -0.79940368 
     928  0.085676835   -7.3228039            0   -7.1947906  -0.81363933 
Loop time of 0.0143478 on 1 procs for 32 steps with 256 atoms

Pair  time (%) = 0.0135155 (94.199)
Neigh time (%) = 0 (0)
Comm  time (%) = 0.000433683 (3.02265)
Outpt time (%) = 1.78814e-05 (0.124628)
Other time (%) = 0.000380754 (2.65375)

Nlocal:    256 ave 256 max 256 min
Histogram: 1 0 0 0 0 0 0 0 0 0
Nghost:    1431 ave 1431 max 1431 min
Histogram: 1 0 0 0 0 0 0 0 0 0
Neighs:    11008 ave 11008 max 11008 min
Histogram: 1 0 0 0 0 0 0 0 0 0

Total # of neighbors = 11008
Ave neighs/atom = 43
Neighbor list builds = 0
Dangerous builds = 0
run 32
Memory usage per processor = 1.63113 Mbytes
Step Temp E_pair E_mol TotEng Press 
     928  0.085676835   -7.3228039            0   -7.1947906  -0.81363933 
     960  0.077797027   -7.3109928            0   -7.1947531   -0.7498422 
Loop time of 0.014369 on 1 procs for 32 steps with 256 atoms

Pair  time (%) = 0.0135293 (94.1561)
Neigh time (%) = 0 (0)
Comm  time (%) = 0.000432253 (3.00823)
Outpt time (%) = 1.81198e-05 (0.126103)
Other time (%) = 0.000389338 (2.70956)

Nlocal:    256 ave 256 max 256 min
Histogram: 1 0 0 0 0 0 0 0 0 0
Nghost:    1431 ave 1431 max 1431 min
Histogram: 1 0 0 0 0 0 0 0 0 0
Neighs:    11008 ave 11008 max 11008 min
Histogram: 1 0 0 0 0 0 0 0 0 0

Total # of neighbors = 11008
Ave neighs/atom = 43
Neighbor list builds = 0
Dangerous builds = 0
run 32
Memory usage per processor = 1.63113 Mbytes
Step Temp E_pair E_mol TotEng Press 
     960  0.077797027   -7.3109928            0   -7.1947531   -0.7498422 
     992  0.081552796   -7.3166228            0   -7.1947714  -0.77880204 
Loop time of 0.0143681 on 1 procs for 32 steps with 256 atoms

Pair  time (%) = 0.0135365 (94.2121)
Neigh time (%) = 0 (0)
Comm  time (%) = 0.000435829 (3.03332)
Outpt time (%) = 1.3113e-05 (0.0912651)
Other time (%) = 0.000382662 (2.66328)

Nlocal:    256 ave 256 max 256 min
Histogram: 1 0 0 0 0 0 0 0 0 0
Nghost:    1431 ave 1431 max 1431 min
Histogram: 1 0 0 0 0 0 0 0 0 0
Neighs:    11008 ave 11008 max 11008 min
Histogram: 1 0 0 0 0 0 0 0 0 0

Total # of neighbors = 11008
Ave neighs/atom = 43
Neighbor list builds = 0
Dangerous builds = 0
run 32
Memory usage per processor = 1.63113 Mbytes
Step Temp E_pair E_mol TotEng Press 
     992  0.081552796   -7.3166228            0   -7.1947714  -0.77880204 
    1024  0.086168774   -7.3235361            0   -7.1947879  -0.81905547 
Loop time of 0.01438 on 1 procs for 32 steps with 256 atoms

Pair  time (%) = 0.0135524 (94.2451)
Neigh time (%) = 0 (0)
Comm  time (%) = 0.000430584 (2.99433)
Outpt time (%) = 1.40667e-05 (0.0978214)
Other time (%) = 0.0003829 (2.66273)

Nlocal:    256 ave 256 max 256 min
Histogram: 1 0 0 0 0 0 0 0 0 0
Nghost:    1431 ave 1431 max 1431 min
Histogram: 1 0 0 0 0 0 0 0 0 0
Neighs:    11008 ave 11008 max 11008 min
Histogram: 1 0 0 0 0 0 0 0 0 0

Total # of neighbors = 11008
Ave neighs/atom = 43
Neighbor list builds = 0
Dangerous builds = 0
run 32
Memory usage per processor = 1.63113 Mbytes
Step Temp E_pair E_mol TotEng Press 
    1024  0.086168774   -7.3235361            0   -7.1947879  -0.81905547 
    1056  0.089797272   -7.3289824            0   -7.1948126  -0.83657631 
Loop time of 0.0143731 on 1 procs for 32 steps with 256 atoms

Pair  time (%) = 0.0135248 (94.098)
Neigh time (%) = 0 (0)
Comm  time (%) = 0.000443459 (3.08534)
Outpt time (%) = 1.78814e-05 (0.124409)
Other time (%) = 0.000386953 (2.69221)

Nlocal:    256 ave 256 max 256 min
Histogram: 1 0 0 0 0 0 0 0 0 0
Nghost:    1431 ave 1431 max 1431 min
Histogram: 1 0 0 0 0 0 0 0 0 0
Neighs:    11008 ave 11008 max 11008 min
Histogram: 1 0 0 0 0 0 0 0 0 0

Total # of neighbors = 11008
Ave neighs/atom = 43
Neighbor list builds = 0
Dangerous builds = 0
run 32
Memory usage per processor = 1.63113 Mbytes
Step Temp E_pair E_mol TotEng Press 
    1056  0.089797272   -7.3289824            0   -7.1948126  -0.83657631 
    1088  0.082963287   -7.3187408            0    -7.194782  -0.79228688 
Loop time of 0.0143251 on 1 procs for 32 steps with 256 atoms

Pair  time (%) = 0.0134959 (94.2114)
Neigh time (%) = 0 (0)
Comm  time (%) = 0.000428915 (2.99414)
Outpt time (%) = 1.3113e-05 (0.0915385)
Other time (%) = 0.000387192 (2.70288)

Nlocal:    256 ave 256 max 256 min
Histogram: 1 0 0 0 0 0 0 0 0 0
Nghost:    1431 ave 1431 max 1431 min
Histogram: 1 0 0 0 0 0 0 0 0 0
Neighs:    11008 ave 11008 max 11008 min
Histogram: 1 0 0 0 0 0 0 0 0 0

Total # of neighbors = 11008
Ave neighs/atom = 43
Neighbor list builds = 0
Dangerous builds = 0
run 32
Memory usage per processor = 1.63113 Mbytes
Step Temp E_pair E_mol TotEng Press 
    1088  0.082963287   -7.3187408            0    -7.194782  -0.79228688 
    1120  0.082409468   -7.3179027            0   -7.1947714  -0.78462179 
Loop time of 0.0143528 on 1 procs for 32 steps with 256 atoms

Pair  time (%) = 0.013525 (94.2326)
Neigh time (%) = 0 (0)
Comm  time (%) = 0.00043273 (3.01495)
Outpt time (%) = 1.38283e-05 (0.0963455)
Other time (%) = 0.000381231 (2.65615)

Nlocal:    256 ave 256 max 256 min
Histogram: 1 0 0 0 0 0 0 0 0 0
Nghost:    1431 ave 1431 max 1431 min
Histogram: 1 0 0 0 0 0 0 0 0 0
Neighs:    11007 ave 11007 max 11007 min
Histogram: 1 0 0 0 0 0 0 0 0 0

Total # of neighbors = 11007
Ave neighs/atom = 42.9961
Neighbor list builds = 0
Dangerous builds = 0
run 32
Memory usage per processor = 1.63113 Mbytes
Step Temp E_pair E_mol TotEng Press 
    1120  0.082409468   -7.3179027            0   -7.1947714  -0.78462179 
    1152  0.085972622   -7.3232478            0   -7.1947926   -0.8052642 
Loop time of 0.0143759 on 1 procs for 32 steps with 256 atoms

Pair  time (%) = 0.0135462 (94.2286)
Neigh time (%) = 0 (0)
Comm  time (%) = 0.000428677 (2.98191)
Outpt time (%) = 1.90735e-05 (0.132677)
Other time (%) = 0.000381947 (2.65685)

Nlocal:    256 ave 256 max 256 min
Histogram: 1 0 0 0 0 0 0 0 0 0
Nghost:    1431 ave 1431 max 1431 min
Histogram: 1 0 0 0 0 0 0 0 0 0
Neighs:    11007 ave 11007 max 11007 min
Histogram: 1 0 0 0 0 0 0 0 0 0

Total # of neighbors = 11007
Ave neighs/atom = 42.9961
Neighbor list builds = 0
Dangerous builds = 0
run 32
Memory usage per processor = 1.63113 Mbytes
Step Temp E_pair E_mol TotEng Press 
    1152  0.085972622   -7.3232478            0   -7.1947926   -0.8052642 
    1184  0.086402937   -7.3238821            0   -7.1947839  -0.81461527 
Loop time of 0.014348 on 1 procs for 32 steps with 256 atoms

Pair  time (%) = 0.0135074 (94.1409)
Neigh time (%) = 0 (0)
Comm  time (%) = 0.000440359 (3.06913)
Outpt time (%) = 1.88351e-05 (0.131273)
Other time (%) = 0.00038147 (2.65869)

Nlocal:    256 ave 256 max 256 min
Histogram: 1 0 0 0 0 0 0 0 0 0
Nghost:    1431 ave 1431 max 1431 min
Histogram: 1 0 0 0 0 0 0 0 0 0
Neighs:    11008 ave 11008 max 11008 min
Histogram: 1 0 0 0 0 0 0 0 0 0

Total # of neighbors = 11008
Ave neighs/atom = 43
Neighbor list builds = 0
Dangerous builds = 0
run 32
Memory usage per processor = 1.63113 Mbytes
Step Temp E_pair E_mol TotEng Press 
    1184  0.086402937   -7.3238821            0   -7.1947839  -0.81461527 
    1216  0.084052188   -7.3203625            0   -7.1947768  -0.79843565 
Loop time of 0.014369 on 1 procs for 32 steps with 256 atoms

Pair  time (%) = 0.0135369 (94.2092)
Neigh time (%) = 0 (0)
Comm  time (%) = 0.000432014 (3.00657)
Outpt time (%) = 1.90735e-05 (0.13274)
Other time (%) = 0.000380993 (2.65149)

Nlocal:    256 ave 256 max 256 min
Histogram: 1 0 0 0 0 0 0 0 0 0
Nghost:    1431 ave 1431 max 1431 min
Histogram: 1 0 0 0 0 0 0 0 0 0
Neighs:    11008 ave 11008 max 11008 min
Histogram: 1 0 0 0 0 0 0 0 0 0

Total # of neighbors = 11008
Ave neighs/atom = 43
Neighbor list builds = 0
Dangerous builds = 0
run 32
Memory usage per processor = 1.63113 Mbytes
Step Temp E_pair E_mol TotEng Press 
    1216  0.084052188   -7.3203625            0   -7.1947768  -0.79843565 
    1248  0.078182044   -7.3115755            0   -7.1947606   -0.7508059 
Loop time of 0.014384 on 1 procs for 32 steps with 256 atoms

Pair  time (%) = 0.0135496 (94.1987)
Neigh time (%) = 0 (0)
Comm  time (%) = 0.000431061 (2.9968)
Outpt time (%) = 1.90735e-05 (0.132602)
Other time (%) = 0.000384331 (2.67193)

Nlocal:    256 ave 256 max 256 min
Histogram: 1 0 0 0 0 0 0 0 0 0
Nghost:    1431 ave 1431 max 1431 min
Histogram: 1 0 0 0 0 0 0 0 0 0
Neighs:    11007 ave 11007 max 11007 min
Histogram: 1 0 0 0 0 0 0 0 0 0

Total # of neighbors = 11007
Ave neighs/atom = 42.9961
Neighbor list builds = 0
Dangerous builds = 0
run 32
Memory usage per processor = 1.63113 Mbytes
Step Temp E_pair E_mol TotEng Press 
    1248  0.078182044   -7.3115755            0   -7.1947606   -0.7508059 
    1280  0.086048235   -7.3233406            0   -7.1947725   -0.8127797 
Loop time of 0.0143361 on 1 procs for 32 steps with 256 atoms

Pair  time (%) = 0.0134971 (94.1477)
Neigh time (%) = 0 (0)
Comm  time (%) = 0.000419378 (2.92533)
Outpt time (%) = 1.90735e-05 (0.133045)
Other time (%) = 0.000400543 (2.79395)

Nlocal:    256 ave 256 max 256 min
Histogram: 1 0 0 0 0 0 0 0 0 0
Nghost:    1431 ave 1431 max 1431 min
Histogram: 1 0 0 0 0 0 0 0 0 0
Neighs:    11007 ave 11007 max 11007 min
Histogram: 1 0 0 0 0 0 0 0 0 0

Total # of neighbors = 11007
Ave neighs/atom = 42.9961
Neighbor list builds = 0
Dangerous builds = 0
run 32
Memory usage per processor = 1.63113 Mbytes
Step Temp E_pair E_mol TotEng Press 
    1280  0.086048235   -7.3233406            0   -7.1947725   -0.8127797 
    1312  0.079388243   -7.3133904            0   -7.1947732  -0.76075437 
Loop time of 0.0143239 on 1 procs for 32 steps with 256 atoms

Pair  time (%) = 0.0134919 (94.191)
Neigh time (%) = 0 (0)
Comm  time (%) = 0.000430107 (3.00271)
Outpt time (%) = 1.97887e-05 (0.138151)
Other time (%) = 0.000382185 (2.66815)

Nlocal:    256 ave 256 max 256 min
Histogram: 1 0 0 0 0 0 0 0 0 0
Nghost:    1431 ave 1431 max 1431 min
Histogram: 1 0 0 0 0 0 0 0 0 0
Neighs:    11008 ave 11008 max 11008 min
Histogram: 1 0 0 0 0 0 0 0 0 0

Total # of neighbors = 11008
Ave neighs/atom = 43
Neighbor list builds = 0
Dangerous builds = 0
run 32
Memory usage per processor = 1.63113 Mbytes
Step Temp E_pair E_mol TotEng Press 
    1312  0.079388243   -7.3133904            0   -7.1947732  -0.76075437 
    1344  0.085775551   -7.3229342            0   -7.1947735   -0.8138336 
Loop time of 0.0143611 on 1 procs for 32 steps with 256 atoms

Pair  time (%) = 0.0135188 (94.1346)
Neigh time (%) = 0 (0)
Comm  time (%) = 0.000435591 (3.03312)
Outpt time (%) = 1.88351e-05 (0.131153)
Other time (%) = 0.000387907 (2.70109)

Nlocal:    256 ave 256 max 256 min
Histogram: 1 0 0 0 0 0 0 0 0 0
Nghost:    1431 ave 1431 max 1431 min
Histogram: 1 0 0 0 0 0 0 0 0 0
Neighs:    11008 ave 11008 max 11008 min
Histogram: 1 0 0 0 0 0 0 0 0 0

Total # of neighbors = 11008
Ave neighs/atom = 43
Neighbor list builds = 0
Dangerous builds = 0
run 32
Memory usage per processor = 1.63113 Mbytes
Step Temp E_pair E_mol TotEng Press 
    1344  0.085775551   -7.3229342            0   -7.1947735   -0.8138336 
    1376  0.077567228   -7.3106509            0   -7.1947546  -0.74475029 
Loop time of 0.014374 on 1 procs for 32 steps with 256 atoms

Pair  time (%) = 0.0135252 (94.0951)
Neigh time (%) = 0 (0)
Comm  time (%) = 0.000429153 (2.98562)
Outpt time (%) = 1.90735e-05 (0.132694)
Other time (%) = 0.000400543 (2.78658)

Nlocal:    256 ave 256 max 256 min
Histogram: 1 0 0 0 0 0 0 0 0 0
Nghost:    1431 ave 1431 max 1431 min
Histogram: 1 0 0 0 0 0 0 0 0 0
Neighs:    11007 ave 11007 max 11007 min
Histogram: 1 0 0 0 0 0 0 0 0 0

Total # of neighbors = 11007
Ave neighs/atom = 42.9961
Neighbor list builds = 0
Dangerous builds = 0
run 32
Memory usage per processor = 1.63113 Mbytes
Step Temp E_pair E_mol TotEng Press 
    1376  0.077567228   -7.3106509            0   -7.1947546  -0.74475029 
    1408  0.081462138    -7.316478            0   -7.1947622   -0.7752756 
Loop time of 0.0143549 on 1 procs for 32 steps with 256 atoms

Pair  time (%) = 0.0135043 (94.074)
Neigh time (%) = 0 (0)
Comm  time (%) = 0.000455856 (3.1756)
Outpt time (%) = 1.90735e-05 (0.132871)
Other time (%) = 0.000375748 (2.61755)

Nlocal:    256 ave 256 max 256 min
Histogram: 1 0 0 0 0 0 0 0 0 0
Nghost:    1431 ave 1431 max 1431 min
Histogram: 1 0 0 0 0 0 0 0 0 0
Neighs:    11005 ave 11005 max 11005 min
Histogram: 1 0 0 0 0 0 0 0 0 0

Total # of neighbors = 11005
Ave neighs/atom = 42.9883
Neighbor list builds = 0
Dangerous builds = 0
run 32
Memory usage per processor = 1.63113 Mbytes
Step Temp E_pair E_mol TotEng Press 
    1408  0.081462138    -7.316478            0   -7.1947622   -0.7752756 
    1440  0.085459469   -7.3224581            0   -7.1947696  -0.80943495 
Loop time of 0.0143681 on 1 procs for 32 steps with 256 atoms

Pair  time (%) = 0.0135231 (94.1192)
Neigh time (%) = 0 (0)
Comm  time (%) = 0.000438213 (3.04991)
Outpt time (%) = 1.90735e-05 (0.132749)
Other time (%) = 0.000387669 (2.69813)

Nlocal:    256 ave 256 max 256 min
Histogram: 1 0 0 0 0 0 0 0 0 0
Nghost:    1431 ave 1431 max 1431 min
Histogram: 1 0 0 0 0 0 0 0 0 0
Neighs:    11006 ave 11006 max 11006 min
Histogram: 1 0 0 0 0 0 0 0 0 0

Total # of neighbors = 11006
Ave neighs/atom = 42.9922
Neighbor list builds = 0
Dangerous builds = 0
run 32
Memory usage per processor = 1.63113 Mbytes
Step Temp E_pair E_mol TotEng Press 
    1440  0.085459469   -7.3224581            0   -7.1947696  -0.80943495 
    1472  0.080643915   -7.3152719            0   -7.1947785  -0.76765972 
Loop time of 0.0143549 on 1 procs for 32 steps with 256 atoms

Pair  time (%) = 0.0135086 (94.1039)
Neigh time (%) = 0 (0)
Comm  time (%) = 0.000444174 (3.09422)
Outpt time (%) = 1.90735e-05 (0.132871)
Other time (%) = 0.000383139 (2.66904)

Nlocal:    256 ave 256 max 256 min
Histogram: 1 0 0 0 0 0 0 0 0 0
Nghost:    1431 ave 1431 max 1431 min
Histogram: 1 0 0 0 0 0 0 0 0 0
Neighs:    11007 ave 11007 max 11007 min
Histogram: 1 0 0 0 0 0 0 0 0 0

Total # of neighbors = 11007
Ave neighs/atom = 42.9961
Neighbor list builds = 0
Dangerous builds = 0
run 32
Memory usage per processor = 1.63113 Mbytes
Step Temp E_pair E_mol TotEng Press 
    1472  0.080643915   -7.3152719            0   -7.1947785  -0.76765972 
    1504  0.083679893   -7.3198133            0   -7.1947837  -0.79504101 
Loop time of 0.0143549 on 1 procs for 32 steps with 256 atoms

Pair  time (%) = 0.0135152 (94.1504)
Neigh time (%) = 0 (0)
Comm  time (%) = 0.000432253 (3.01118)
Outpt time (%) = 1.78814e-05 (0.124566)
Other time (%) = 0.000389576 (2.71388)

Nlocal:    256 ave 256 max 256 min
Histogram: 1 0 0 0 0 0 0 0 0 0
Nghost:    1431 ave 1431 max 1431 min
Histogram: 1 0 0 0 0 0 0 0 0 0
Neighs:    11006 ave 11006 max 11006 min
Histogram: 1 0 0 0 0 0 0 0 0 0

Total # of neighbors = 11006
Ave neighs/atom = 42.9922
Neighbor list builds = 0
Dangerous builds = 0
run 32
Memory usage per processor = 1.63113 Mbytes
Step Temp E_pair E_mol TotEng Press 
    1504  0.083679893   -7.3198133            0   -7.1947837  -0.79504101 
    1536  0.080466658    -7.314997            0   -7.1947685  -0.76729969 
Loop time of 0.014359 on 1 procs for 32 steps with 256 atoms

Pair  time (%) = 0.0135181 (94.1437)
Neigh time (%) = 0 (0)
Comm  time (%) = 0.000435352 (3.03191)
Outpt time (%) = 1.78814e-05 (0.124531)
Other time (%) = 0.000387669 (2.69983)

Nlocal:    256 ave 256 max 256 min
Histogram: 1 0 0 0 0 0 0 0 0 0
Nghost:    1431 ave 1431 max 1431 min
Histogram: 1 0 0 0 0 0 0 0 0 0
Neighs:    11007 ave 11007 max 11007 min
Histogram: 1 0 0 0 0 0 0 0 0 0

Total # of neighbors = 11007
Ave neighs/atom = 42.9961
Neighbor list builds = 0
Dangerous builds = 0
run 32
Memory usage per processor = 1.63113 Mbytes
Step Temp E_pair E_mol TotEng Press 
    1536  0.080466658    -7.314997            0   -7.1947685  -0.76729969 
    1568  0.081187482    -7.316055            0   -7.1947495  -0.77988661 
Loop time of 0.014333 on 1 procs for 32 steps with 256 atoms

Pair  time (%) = 0.0134921 (94.1331)
Neigh time (%) = 0 (0)
Comm  time (%) = 0.000433922 (3.02743)
Outpt time (%) = 1.50204e-05 (0.104796)
Other time (%) = 0.00039196 (2.73467)

Nlocal:    256 ave 256 max 256 min
Histogram: 1 0 0 0 0 0 0 0 0 0
Nghost:    1431 ave 1431 max 1431 min
Histogram: 1 0 0 0 0 0 0 0 0 0
Neighs:    11005 ave 11005 max 11005 min
Histogram: 1 0 0 0 0 0 0 0 0 0

Total # of neighbors = 11005
Ave neighs/atom = 42.9883
Neighbor list builds = 0
Dangerous builds = 0
run 32
Memory usage per processor = 1.63113 Mbytes
Step Temp E_pair E_mol TotEng Press 
    1568  0.081187482    -7.316055            0   -7.1947495  -0.77988661 
    1600  0.085006689     -7.32178            0   -7.1947681  -0.80537119 
Loop time of 0.0143678 on 1 procs for 32 steps with 256 atoms

Pair  time (%) = 0.0135336 (94.1938)
Neigh time (%) = 0 (0)
Comm  time (%) = 0.000428438 (2.98193)
Outpt time (%) = 1.38283e-05 (0.0962448)
Other time (%) = 0.00039196 (2.72804)

Nlocal:    256 ave 256 max 256 min
Histogram: 1 0 0 0 0 0 0 0 0 0
Nghost:    1431 ave 1431 max 1431 min
Histogram: 1 0 0 0 0 0 0 0 0 0
Neighs:    11007 ave 11007 max 11007 min
Histogram: 1 0 0 0 0 0 0 0 0 0

Total # of neighbors = 11007
Ave neighs/atom = 42.9961
Neighbor list builds = 0
Dangerous builds = 0
run 32
Memory usage per processor = 1.63113 Mbytes
Step Temp E_pair E_mol TotEng Press 
    1600  0.085006689     -7.32178            0   -7.1947681  -0.80537119 
    1632  0.081085073   -7.3159167            0   -7.1947642  -0.77166204 
Loop time of 0.0143499 on 1 procs for 32 steps with 256 atoms

Pair  time (%) = 0.0134931 (94.0287)
Neigh time (%) = 0 (0)
Comm  time (%) = 0.000439644 (3.06373)
Outpt time (%) = 2.38419e-05 (0.166146)
Other time (%) = 0.000393391 (2.74141)

Nlocal:    256 ave 256 max 256 min
Histogram: 1 0 0 0 0 0 0 0 0 0
Nghost:    1431 ave 1431 max 1431 min
Histogram: 1 0 0 0 0 0 0 0 0 0
Neighs:    11008 ave 11008 max 11008 min
Histogram: 1 0 0 0 0 0 0 0 0 0

Total # of neighbors = 11008
Ave neighs/atom = 43
Neighbor list builds = 0
Dangerous builds = 0
run 32
Memory usage per processor = 1.63113 Mbytes
Step Temp E_pair E_mol TotEng Press 
    1632  0.081085073   -7.3159167            0   -7.1947642  -0.77166204 
    1664  0.085081457   -7.3218869            0   -7.1947632  -0.80887419 
Loop time of 0.015547 on 1 procs for 32 steps with 256 atoms

Pair  time (%) = 0.0135376 (87.0754)
Neigh time (%) = 0.001127 (7.249)
Comm  time (%) = 0.000474453 (3.05173)
Outpt time (%) = 2.00272e-05 (0.128817)
Other time (%) = 0.000387907 (2.49505)

Nlocal:    256 ave 256 max 256 min
Histogram: 1 0 0 0 0 0 0 0 0 0
Nghost:    1431 ave 1431 max 1431 min
Histogram: 1 0 0 0 0 0 0 0 0 0
Neighs:    11008 ave 11008 max 11008 min
Histogram: 1 0 0 0 0 0 0 0 0 0

Total # of neighbors = 11008
Ave neighs/atom = 43
Neighbor list builds = 1
Dangerous builds = 0
run 32
Memory usage per processor = 1.63113 Mbytes
Step Temp E_pair E_mol TotEng Press 
    1664  0.085081457   -7.3218869            0   -7.1947632  -0.80887419 
    1696  0.081634837   -7.3167271            0   -7.1947532  -0.77420729 
Loop time of 0.014354 on 1 procs for 32 steps with 256 atoms

Pair  time (%) = 0.0135236 (94.2148)
Neigh time (%) = 0 (0)
Comm  time (%) = 0.0004282 (2.98314)
Outpt time (%) = 1.88351e-05 (0.131218)
Other time (%) = 0.000383377 (2.67087)

Nlocal:    256 ave 256 max 256 min
Histogram: 1 0 0 0 0 0 0 0 0 0
Nghost:    1431 ave 1431 max 1431 min
Histogram: 1 0 0 0 0 0 0 0 0 0
Neighs:    11008 ave 11008 max 11008 min
Histogram: 1 0 0 0 0 0 0 0 0 0

Total # of neighbors = 11008
Ave neighs/atom = 43
Neighbor list builds = 0
Dangerous builds = 0
run 32
Memory usage per processor = 1.63113 Mbytes
Step Temp E_pair E_mol TotEng Press 
    1696  0.081634837   -7.3167271            0   -7.1947532  -0.77420729 
    1728  0.083020652   -7.3187921            0   -7.1947475  -0.78337664 
Loop time of 0.0143471 on 1 procs for 32 steps with 256 atoms

Pair  time (%) = 0.0135188 (94.2269)
Neigh time (%) = 0 (0)
Comm  time (%) = 0.000422955 (2.94802)
Outpt time (%) = 1.90735e-05 (0.132943)
Other time (%) = 0.000386238 (2.6921)

Nlocal:    256 ave 256 max 256 min
Histogram: 1 0 0 0 0 0 0 0 0 0
Nghost:    1431 ave 1431 max 1431 min
Histogram: 1 0 0 0 0 0 0 0 0 0
Neighs:    11008 ave 11008 max 11008 min
Histogram: 1 0 0 0 0 0 0 0 0 0

Total # of neighbors = 11008
Ave neighs/atom = 43
Neighbor list builds = 0
Dangerous builds = 0
run 32
Memory usage per processor = 1.63113 Mbytes
Step Temp E_pair E_mol TotEng Press 
    1728  0.083020652   -7.3187921            0   -7.1947475  -0.78337664 
    1760  0.082229999   -7.3176087            0   -7.1947456  -0.78352196 
Loop time of 0.014672 on 1 procs for 32 steps with 256 atoms

Pair  time (%) = 0.0138264 (94.2362)
Neigh time (%) = 0 (0)
Comm  time (%) = 0.000434875 (2.96397)
Outpt time (%) = 2.5034e-05 (0.170624)
Other time (%) = 0.000385761 (2.62923)

Nlocal:    256 ave 256 max 256 min
Histogram: 1 0 0 0 0 0 0 0 0 0
Nghost:    1431 ave 1431 max 1431 min
Histogram: 1 0 0 0 0 0 0 0 0 0
Neighs:    11007 ave 11007 max 11007 min
Histogram: 1 0 0 0 0 0 0 0 0 0

Total # of neighbors = 11007
Ave neighs/atom = 42.9961
Neighbor list builds = 0
Dangerous builds = 0
run 32
Memory usage per processor = 1.63113 Mbytes
Step Temp E_pair E_mol TotEng Press 
    1760  0.082229999   -7.3176087            0   -7.1947456  -0.78352196 
    1792  0.083136261   -7.3189637            0   -7.1947464  -0.79432646 
Loop time of 0.0143819 on 1 procs for 32 steps with 256 atoms

Pair  time (%) = 0.0135458 (94.1862)
Neigh time (%) = 0 (0)
Comm  time (%) = 0.000432491 (3.00719)
Outpt time (%) = 1.88351e-05 (0.130964)
Other time (%) = 0.000384808 (2.67564)

Nlocal:    256 ave 256 max 256 min
Histogram: 1 0 0 0 0 0 0 0 0 0
Nghost:    1431 ave 1431 max 1431 min
Histogram: 1 0 0 0 0 0 0 0 0 0
Neighs:    11006 ave 11006 max 11006 min
Histogram: 1 0 0 0 0 0 0 0 0 0

Total # of neighbors = 11006
Ave neighs/atom = 42.9922
Neighbor list builds = 0
Dangerous builds = 0
run 32
Memory usage per processor = 1.63113 Mbytes
Step Temp E_pair E_mol TotEng Press 
    1792  0.083136261   -7.3189637            0   -7.1947464  -0.79432646 
    1824  0.087948124   -7.3261675            0   -7.1947607  -0.82727354 
Loop time of 0.014401 on 1 procs for 32 steps with 256 atoms

Pair  time (%) = 0.0135603 (94.1624)
Neigh time (%) = 0 (0)
Comm  time (%) = 0.000447035 (3.1042)
Outpt time (%) = 1.90735e-05 (0.132446)
Other time (%) = 0.000374556 (2.60091)

Nlocal:    256 ave 256 max 256 min
Histogram: 1 0 0 0 0 0 0 0 0 0
Nghost:    1431 ave 1431 max 1431 min
Histogram: 1 0 0 0 0 0 0 0 0 0
Neighs:    11007 ave 11007 max 11007 min
Histogram: 1 0 0 0 0 0 0 0 0 0

Total # of neighbors = 11007
Ave neighs/atom = 42.9961
Neighbor list builds = 0
Dangerous builds = 0
run 32
Memory usage per processor = 1.63113 Mbytes
Step Temp E_pair E_mol TotEng Press 
    1824  0.087948124   -7.3261675            0   -7.1947607  -0.82727354 
    1856  0.077887948   -7.3111105            0    -7.194735  -0.74521663 
Loop time of 0.0143681 on 1 procs for 32 steps with 256 atoms

Pair  time (%) = 0.013536 (94.2088)
Neigh time (%) = 0 (0)
Comm  time (%) = 0.000431776 (3.00511)
Outpt time (%) = 1.69277e-05 (0.117815)
Other time (%) = 0.000383377 (2.66826)

Nlocal:    256 ave 256 max 256 min
Histogram: 1 0 0 0 0 0 0 0 0 0
Nghost:    1431 ave 1431 max 1431 min
Histogram: 1 0 0 0 0 0 0 0 0 0
Neighs:    11008 ave 11008 max 11008 min
Histogram: 1 0 0 0 0 0 0 0 0 0

Total # of neighbors = 11008
Ave neighs/atom = 43
Neighbor list builds = 0
Dangerous builds = 0
run 32
Memory usage per processor = 1.63113 Mbytes
Step Temp E_pair E_mol TotEng Press 
    1856  0.077887948   -7.3111105            0    -7.194735  -0.74521663 
    1888  0.083195114   -7.3190466            0   -7.1947414  -0.79302385 
Loop time of 0.0143528 on 1 procs for 32 steps with 256 atoms

Pair  time (%) = 0.0135176 (94.1811)
Neigh time (%) = 0 (0)
Comm  time (%) = 0.00042367 (2.95183)
Outpt time (%) = 1.88351e-05 (0.131229)
Other time (%) = 0.000392675 (2.73588)

Nlocal:    256 ave 256 max 256 min
Histogram: 1 0 0 0 0 0 0 0 0 0
Nghost:    1431 ave 1431 max 1431 min
Histogram: 1 0 0 0 0 0 0 0 0 0
Neighs:    11007 ave 11007 max 11007 min
Histogram: 1 0 0 0 0 0 0 0 0 0

Total # of neighbors = 11007
Ave neighs/atom = 42.9961
Neighbor list builds = 0
Dangerous builds = 0
run 32
Memory usage per processor = 1.63113 Mbytes
Step Temp E_pair E_mol TotEng Press 
    1888  0.083195114   -7.3190466            0   -7.1947414  -0.79302385 
    1920  0.090403899   -7.3298486            0   -7.1947725  -0.85066296 
Loop time of 0.014358 on 1 procs for 32 steps with 256 atoms

Pair  time (%) = 0.0135219 (94.1765)
Neigh time (%) = 0 (0)
Comm  time (%) = 0.000429153 (2.98894)
Outpt time (%) = 1.90735e-05 (0.132842)
Other time (%) = 0.000387907 (2.70167)

Nlocal:    256 ave 256 max 256 min
Histogram: 1 0 0 0 0 0 0 0 0 0
Nghost:    1431 ave 1431 max 1431 min
Histogram: 1 0 0 0 0 0 0 0 0 0
Neighs:    11006 ave 11006 max 11006 min
Histogram: 1 0 0 0 0 0 0 0 0 0

Total # of neighbors = 11006
Ave neighs/atom = 42.9922
Neighbor list builds = 0
Dangerous builds = 0
run 32
Memory usage per processor = 1.63113 Mbytes
Step Temp E_pair E_mol TotEng Press 
    1920  0.090403899   -7.3298486            0   -7.1947725  -0.85066296 
    1952   0.08515247   -7.3219918            0    -7.194762  -0.80022957 
Loop time of 0.0144019 on 1 procs for 32 steps with 256 atoms

Pair  time (%) = 0.0135739 (94.2506)
Neigh time (%) = 0 (0)
Comm  time (%) = 0.000429392 (2.98149)
Outpt time (%) = 1.5974e-05 (0.110916)
Other time (%) = 0.000382662 (2.65702)

Nlocal:    256 ave 256 max 256 min
Histogram: 1 0 0 0 0 0 0 0 0 0
Nghost:    1431 ave 1431 max 1431 min
Histogram: 1 0 0 0 0 0 0 0 0 0
Neighs:    11006 ave 11006 max 11006 min
Histogram: 1 0 0 0 0 0 0 0 0 0

Total # of neighbors = 11006
Ave neighs/atom = 42.9922
Neighbor list builds = 0
Dangerous builds = 0
run 32
Memory usage per processor = 1.63113 Mbytes
Step Temp E_pair E_mol TotEng Press 
    1952   0.08515247   -7.3219918            0    -7.194762  -0.80022957 
    1984  0.088227787   -7.3265916            0   -7.1947669  -0.83793179 
Loop time of 0.0143631 on 1 procs for 32 steps with 256 atoms

Pair  time (%) = 0.0135307 (94.2051)
Neigh time (%) = 0 (0)
Comm  time (%) = 0.000430107 (2.99454)
Outpt time (%) = 1.90735e-05 (0.132796)
Other time (%) = 0.000383139 (2.66753)

Nlocal:    256 ave 256 max 256 min
Histogram: 1 0 0 0 0 0 0 0 0 0
Nghost:    1431 ave 1431 max 1431 min
Histogram: 1 0 0 0 0 0 0 0 0 0
Neighs:    11007 ave 11007 max 11007 min
Histogram: 1 0 0 0 0 0 0 0 0 0

Total # of neighbors = 11007
Ave neighs/atom = 42.9961
Neighbor list builds = 0
Dangerous builds = 0
run 32
Memory usage per processor = 1.63113 Mbytes
Step Temp E_pair E_mol TotEng Press 
    1984  0.088227787   -7.3265916            0   -7.1947669  -0.83793179 
    2016   0.08026223   -7.3146653            0   -7.1947422  -0.76931731 
Loop time of 0.0143609 on 1 procs for 32 steps with 256 atoms

Pair  time (%) = 0.0135338 (94.2408)
Neigh time (%) = 0 (0)
Comm  time (%) = 0.000432968 (3.01491)
Outpt time (%) = 1.40667e-05 (0.0979513)
Other time (%) = 0.000380039 (2.64635)

Nlocal:    256 ave 256 max 256 min
Histogram: 1 0 0 0 0 0 0 0 0 0
Nghost:    1431 ave 1431 max 1431 min
Histogram: 1 0 0 0 0 0 0 0 0 0
Neighs:    11007 ave 11007 max 11007 min
Histogram: 1 0 0 0 0 0 0 0 0 0

Total # of neighbors = 11007
Ave neighs/atom = 42.9961
Neighbor list builds = 0
Dangerous builds = 0
run 32
Memory usage per processor = 1.63113 Mbytes
Step Temp E_pair E_mol TotEng Press 
    2016   0.08026223   -7.3146653            0   -7.1947422  -0.76931731 
    2048  0.085898452    -7.323098            0   -7.1947536  -0.81341753 
Loop time of 0.0144241 on 1 procs for 32 steps with 256 atoms

Pair  time (%) = 0.0135267 (93.7784)
Neigh time (%) = 0 (0)
Comm  time (%) = 0.000470638 (3.26286)
Outpt time (%) = 2.09808e-05 (0.145457)
Other time (%) = 0.000405788 (2.81327)

Nlocal:    256 ave 256 max 256 min
Histogram: 1 0 0 0 0 0 0 0 0 0
Nghost:    1431 ave 1431 max 1431 min
Histogram: 1 0 0 0 0 0 0 0 0 0
Neighs:    11005 ave 11005 max 11005 min
Histogram: 1 0 0 0 0 0 0 0 0 0

Total # of neighbors = 11005
Ave neighs/atom = 42.9883
Neighbor list builds = 0
Dangerous builds = 0
run 32
Memory usage per processor = 1.63113 Mbytes
Step Temp E_pair E_mol TotEng Press 
    2048  0.085898452    -7.323098            0   -7.1947536  -0.81341753 
    2080  0.079836454   -7.3140225            0   -7.1947356  -0.76531134 
Loop time of 0.014369 on 1 procs for 32 steps with 256 atoms

Pair  time (%) = 0.0135186 (94.0814)
Neigh time (%) = 0 (0)
Comm  time (%) = 0.00042963 (2.98998)
Outpt time (%) = 2.09808e-05 (0.146014)
Other time (%) = 0.000399828 (2.78257)

Nlocal:    256 ave 256 max 256 min
Histogram: 1 0 0 0 0 0 0 0 0 0
Nghost:    1431 ave 1431 max 1431 min
Histogram: 1 0 0 0 0 0 0 0 0 0
Neighs:    11009 ave 11009 max 11009 min
Histogram: 1 0 0 0 0 0 0 0 0 0

Total # of neighbors = 11009
Ave neighs/atom = 43.0039
Neighbor list builds = 0
Dangerous builds = 0
run 32
Memory usage per processor = 1.63113 Mbytes
Step Temp E_pair E_mol TotEng Press 
    2080  0.079836454   -7.3140225            0   -7.1947356  -0.76531134 
    2112   0.08321446   -7.3190701            0    -7.194736  -0.79372524 
Loop time of 0.014662 on 1 procs for 32 steps with 256 atoms

Pair  time (%) = 0.0136395 (93.0257)
Neigh time (%) = 0 (0)
Comm  time (%) = 0.00049758 (3.39366)
Outpt time (%) = 0.000108004 (0.736621)
Other time (%) = 0.000416994 (2.84404)

Nlocal:    256 ave 256 max 256 min
Histogram: 1 0 0 0 0 0 0 0 0 0
Nghost:    1431 ave 1431 max 1431 min
Histogram: 1 0 0 0 0 0 0 0 0 0
Neighs:    11008 ave 11008 max 11008 min
Histogram: 1 0 0 0 0 0 0 0 0 0

Total # of neighbors = 11008
Ave neighs/atom = 43
Neighbor list builds = 0
Dangerous builds = 0
run 32
Memory usage per processor = 1.63113 Mbytes
Step Temp E_pair E_mol TotEng Press 
    2112   0.08321446   -7.3190701            0    -7.194736  -0.79372524 
    2144   0.08153116   -7.3165387            0   -7.1947197  -0.78171514 
Loop time of 0.0144541 on 1 procs for 32 steps with 256 atoms

Pair  time (%) = 0.0135884 (94.0107)
Neigh time (%) = 0 (0)
Comm  time (%) = 0.0004251 (2.94103)
Outpt time (%) = 5.29289e-05 (0.366186)
Other time (%) = 0.000387669 (2.68206)

Nlocal:    256 ave 256 max 256 min
Histogram: 1 0 0 0 0 0 0 0 0 0
Nghost:    1431 ave 1431 max 1431 min
Histogram: 1 0 0 0 0 0 0 0 0 0
Neighs:    11008 ave 11008 max 11008 min
Histogram: 1 0 0 0 0 0 0 0 0 0

Total # of neighbors = 11008
Ave neighs/atom = 43
Neighbor list builds = 0
Dangerous builds = 0
run 32
Memory usage per processor = 1.63113 Mbytes
Step Temp E_pair E_mol TotEng Press 
    2144   0.08153116   -7.3165387            0   -7.1947197  -0.78171514 
    2176  0.080302298    -7.314719            0   -7.1947361  -0.76205939 
Loop time of 0.0144072 on 1 procs for 32 steps with 256 atoms

Pair  time (%) = 0.0135391 (93.9746)
Neigh time (%) = 0 (0)
Comm  time (%) = 0.000433683 (3.01019)
Outpt time (%) = 4.79221e-05 (0.332627)
Other time (%) = 0.000386477 (2.68253)

Nlocal:    256 ave 256 max 256 min
Histogram: 1 0 0 0 0 0 0 0 0 0
Nghost:    1431 ave 1431 max 1431 min
Histogram: 1 0 0 0 0 0 0 0 0 0
Neighs:    11008 ave 11008 max 11008 min
Histogram: 1 0 0 0 0 0 0 0 0 0

Total # of neighbors = 11008
Ave neighs/atom = 43
Neighbor list builds = 0
Dangerous builds = 0
run 32
Memory usage per processor = 1.63113 Mbytes
Step Temp E_pair E_mol TotEng Press 
    2176  0.080302298    -7.314719            0   -7.1947361  -0.76205939 
    2208  0.087271183   -7.3251369            0   -7.1947414  -0.82280446 
Loop time of 0.0143881 on 1 procs for 32 steps with 256 atoms

Pair  time (%) = 0.0135181 (93.9534)
Neigh time (%) = 0 (0)
Comm  time (%) = 0.000436783 (3.03573)
Outpt time (%) = 4.79221e-05 (0.333068)
Other time (%) = 0.000385284 (2.6778)

Nlocal:    256 ave 256 max 256 min
Histogram: 1 0 0 0 0 0 0 0 0 0
Nghost:    1431 ave 1431 max 1431 min
Histogram: 1 0 0 0 0 0 0 0 0 0
Neighs:    11007 ave 11007 max 11007 min
Histogram: 1 0 0 0 0 0 0 0 0 0

Total # of neighbors = 11007
Ave neighs/atom = 42.9961
Neighbor list builds = 0
Dangerous builds = 0
run 32
Memory usage per processor = 1.63113 Mbytes
Step Temp E_pair E_mol TotEng Press 
    2208  0.087271183   -7.3251369            0   -7.1947414  -0.82280446 
    2240  0.079742657   -7.3138589            0   -7.1947122  -0.76660433 
Loop time of 0.014425 on 1 procs for 32 steps with 256 atoms

Pair  time (%) = 0.0135629 (94.0234)
Neigh time (%) = 0 (0)
Comm  time (%) = 0.000425816 (2.95192)
Outpt time (%) = 4.81606e-05 (0.333868)
Other time (%) = 0.000388145 (2.69078)

Nlocal:    256 ave 256 max 256 min
Histogram: 1 0 0 0 0 0 0 0 0 0
Nghost:    1431 ave 1431 max 1431 min
Histogram: 1 0 0 0 0 0 0 0 0 0
Neighs:    11007 ave 11007 max 11007 min
Histogram: 1 0 0 0 0 0 0 0 0 0

Total # of neighbors = 11007
Ave neighs/atom = 42.9961
Neighbor list builds = 0
Dangerous builds = 0
run 32
Memory usage per processor = 1.63113 Mbytes
Step Temp E_pair E_mol TotEng Press 
    2240  0.079742657   -7.3138589            0   -7.1947122  -0.76660433 
    2272  0.083696697   -7.3197913            0   -7.1947367  -0.79454245 
Loop time of 0.014426 on 1 procs for 32 steps with 256 atoms

Pair  time (%) = 0.0135579 (93.9825)
Neigh time (%) = 0 (0)
Comm  time (%) = 0.000428915 (2.97321)
Outpt time (%) = 5.10216e-05 (0.353678)
Other time (%) = 0.000388145 (2.6906)

Nlocal:    256 ave 256 max 256 min
Histogram: 1 0 0 0 0 0 0 0 0 0
Nghost:    1431 ave 1431 max 1431 min
Histogram: 1 0 0 0 0 0 0 0 0 0
Neighs:    11007 ave 11007 max 11007 min
Histogram: 1 0 0 0 0 0 0 0 0 0

Total # of neighbors = 11007
Ave neighs/atom = 42.9961
Neighbor list builds = 0
Dangerous builds = 0
run 32
Memory usage per processor = 1.63113 Mbytes
Step Temp E_pair E_mol TotEng Press 
    2272  0.083696697   -7.3197913            0   -7.1947367  -0.79454245 
    2304  0.079328414   -7.3132606            0   -7.1947328  -0.75797548 
Loop time of 0.0144351 on 1 procs for 32 steps with 256 atoms

Pair  time (%) = 0.0135558 (93.9087)
Neigh time (%) = 0 (0)
Comm  time (%) = 0.00043416 (3.00768)
Outpt time (%) = 5.31673e-05 (0.368321)
Other time (%) = 0.00039196 (2.71534)

Nlocal:    256 ave 256 max 256 min
Histogram: 1 0 0 0 0 0 0 0 0 0
Nghost:    1431 ave 1431 max 1431 min
Histogram: 1 0 0 0 0 0 0 0 0 0
Neighs:    11007 ave 11007 max 11007 min
Histogram: 1 0 0 0 0 0 0 0 0 0

Total # of neighbors = 11007
Ave neighs/atom = 42.9961
Neighbor list builds = 0
Dangerous builds = 0
run 32
Memory usage per processor = 1.63113 Mbytes
Step Temp E_pair E_mol TotEng Press 
    2304  0.079328414   -7.3132606            0   -7.1947328  -0.75797548 
    2336  0.084743317    -7.321358            0   -7.1947395  -0.80063543 
Loop time of 0.0143969 on 1 procs for 32 steps with 256 atoms

Pair  time (%) = 0.0135159 (93.8809)
Neigh time (%) = 0 (0)
Comm  time (%) = 0.000436544 (3.03221)
Outpt time (%) = 5.19753e-05 (0.361017)
Other time (%) = 0.000392437 (2.72584)

Nlocal:    256 ave 256 max 256 min
Histogram: 1 0 0 0 0 0 0 0 0 0
Nghost:    1431 ave 1431 max 1431 min
Histogram: 1 0 0 0 0 0 0 0 0 0
Neighs:    11005 ave 11005 max 11005 min
Histogram: 1 0 0 0 0 0 0 0 0 0

Total # of neighbors = 11005
Ave neighs/atom = 42.9883
Neighbor list builds = 0
Dangerous builds = 0
run 32
Memory usage per processor = 1.63113 Mbytes
Step Temp E_pair E_mol TotEng Press 
    2336  0.084743317    -7.321358            0   -7.1947395  -0.80063543 
    2368  0.085935739   -7.3231424            0   -7.1947423  -0.81172112 
Loop time of 0.0144079 on 1 procs for 32 steps with 256 atoms

Pair  time (%) = 0.0135295 (93.9038)
Neigh time (%) = 0 (0)
Comm  time (%) = 0.000440598 (3.05803)
Outpt time (%) = 5.00679e-05 (0.347504)
Other time (%) = 0.000387669 (2.69067)

Nlocal:    256 ave 256 max 256 min
Histogram: 1 0 0 0 0 0 0 0 0 0
Nghost:    1431 ave 1431 max 1431 min
Histogram: 1 0 0 0 0 0 0 0 0 0
Neighs:    11008 ave 11008 max 11008 min
Histogram: 1 0 0 0 0 0 0 0 0 0

Total # of neighbors = 11008
Ave neighs/atom = 43
Neighbor list builds = 0
Dangerous builds = 0
run 32
Memory usage per processor = 1.63113 Mbytes
Step Temp E_pair E_mol TotEng Press 
    2368  0.085935739   -7.3231424            0   -7.1947423  -0.81172112 
    2400  0.079928812   -7.3141626            0   -7.1947377  -0.76141111 
Loop time of 0.0144 on 1 procs for 32 steps with 256 atoms

Pair  time (%) = 0.0135293 (93.9534)
Neigh time (%) = 0 (0)
Comm  time (%) = 0.000427485 (2.96864)
Outpt time (%) = 5.10216e-05 (0.354316)
Other time (%) = 0.000392199 (2.7236)

Nlocal:    256 ave 256 max 256 min
Histogram: 1 0 0 0 0 0 0 0 0 0
Nghost:    1431 ave 1431 max 1431 min
Histogram: 1 0 0 0 0 0 0 0 0 0
Neighs:    11008 ave 11008 max 11008 min
Histogram: 1 0 0 0 0 0 0 0 0 0

Total # of neighbors = 11008
Ave neighs/atom = 43
Neighbor list builds = 0
Dangerous builds = 0
run 32
Memory usage per processor = 1.63113 Mbytes
Step Temp E_pair E_mol TotEng Press 
    2400  0.079928812   -7.3141626            0   -7.1947377  -0.76141111 
    2432   0.08391338   -7.3201361            0   -7.1947577  -0.79433758 
Loop time of 0.0144072 on 1 procs for 32 steps with 256 atoms

Pair  time (%) = 0.0135331 (93.9333)
Neigh time (%) = 0 (0)
Comm  time (%) = 0.000439644 (3.05157)
Outpt time (%) = 4.88758e-05 (0.339247)
Other time (%) = 0.000385523 (2.67591)

Nlocal:    256 ave 256 max 256 min
Histogram: 1 0 0 0 0 0 0 0 0 0
Nghost:    1431 ave 1431 max 1431 min
Histogram: 1 0 0 0 0 0 0 0 0 0
Neighs:    11008 ave 11008 max 11008 min
Histogram: 1 0 0 0 0 0 0 0 0 0

Total # of neighbors = 11008
Ave neighs/atom = 43
Neighbor list builds = 0
Dangerous builds = 0
run 32
Memory usage per processor = 1.63113 Mbytes
Step Temp E_pair E_mol TotEng Press 
    2432   0.08391338   -7.3201361            0   -7.1947577  -0.79433758 
    2464  0.084021644    -7.320291            0   -7.1947508  -0.79887551 
Loop time of 0.0144188 on 1 procs for 32 steps with 256 atoms

Pair  time (%) = 0.0135305 (93.839)
Neigh time (%) = 0 (0)
Comm  time (%) = 0.000448942 (3.11358)
Outpt time (%) = 4.88758e-05 (0.338972)
Other time (%) = 0.00039053 (2.70847)

Nlocal:    256 ave 256 max 256 min
Histogram: 1 0 0 0 0 0 0 0 0 0
Nghost:    1431 ave 1431 max 1431 min
Histogram: 1 0 0 0 0 0 0 0 0 0
Neighs:    11007 ave 11007 max 11007 min
Histogram: 1 0 0 0 0 0 0 0 0 0

Total # of neighbors = 11007
Ave neighs/atom = 42.9961
Neighbor list builds = 0
Dangerous builds = 0
run 32
Memory usage per processor = 1.63113 Mbytes
Step Temp E_pair E_mol TotEng Press 
    2464  0.084021644    -7.320291            0   -7.1947508  -0.79887551 
    2496   0.08295228   -7.3186958            0   -7.1947534  -0.78389165 
Loop time of 0.0144281 on 1 procs for 32 steps with 256 atoms

Pair  time (%) = 0.0135427 (93.8628)
Neigh time (%) = 0 (0)
Comm  time (%) = 0.000429392 (2.97607)
Outpt time (%) = 6.50883e-05 (0.45112)
Other time (%) = 0.000391006 (2.71003)

Nlocal:    256 ave 256 max 256 min
Histogram: 1 0 0 0 0 0 0 0 0 0
Nghost:    1431 ave 1431 max 1431 min
Histogram: 1 0 0 0 0 0 0 0 0 0
Neighs:    11006 ave 11006 max 11006 min
Histogram: 1 0 0 0 0 0 0 0 0 0

Total # of neighbors = 11006
Ave neighs/atom = 42.9922
Neighbor list builds = 0
Dangerous builds = 0
run 32
Memory usage per processor = 1.63113 Mbytes
Step Temp E_pair E_mol TotEng Press 
    2496   0.08295228   -7.3186958            0   -7.1947534  -0.78389165 
    2528  0.080590537   -7.3151659            0   -7.1947523  -0.76468877 
Loop time of 0.0144031 on 1 procs for 32 steps with 256 atoms

Pair  time (%) = 0.0135248 (93.9018)
Neigh time (%) = 0 (0)
Comm  time (%) = 0.000431776 (2.9978)
Outpt time (%) = 5.00679e-05 (0.347619)
Other time (%) = 0.00039649 (2.75281)

Nlocal:    256 ave 256 max 256 min
Histogram: 1 0 0 0 0 0 0 0 0 0
Nghost:    1431 ave 1431 max 1431 min
Histogram: 1 0 0 0 0 0 0 0 0 0
Neighs:    11008 ave 11008 max 11008 min
Histogram: 1 0 0 0 0 0 0 0 0 0

Total # of neighbors = 11008
Ave neighs/atom = 43
Neighbor list builds = 0
Dangerous builds = 0
run 32
Memory usage per processor = 1.63113 Mbytes
Step Temp E_pair E_mol TotEng Press 
    2528  0.080590537   -7.3151659            0   -7.1947523  -0.76468877 
    2560  0.078787184    -7.312473            0   -7.1947539  -0.75361535 
Loop time of 0.014416 on 1 procs for 32 steps with 256 atoms

Pair  time (%) = 0.0135214 (93.7948)
Neigh time (%) = 0 (0)
Comm  time (%) = 0.000430584 (2.98685)
Outpt time (%) = 4.81606e-05 (0.334078)
Other time (%) = 0.000415802 (2.88431)

Nlocal:    256 ave 256 max 256 min
Histogram: 1 0 0 0 0 0 0 0 0 0
Nghost:    1431 ave 1431 max 1431 min
Histogram: 1 0 0 0 0 0 0 0 0 0
Neighs:    11008 ave 11008 max 11008 min
Histogram: 1 0 0 0 0 0 0 0 0 0

Total # of neighbors = 11008
Ave neighs/atom = 43
Neighbor list builds = 0
Dangerous builds = 0
run 32
Memory usage per processor = 1.63113 Mbytes
Step Temp E_pair E_mol TotEng Press 
    2560  0.078787184    -7.312473            0   -7.1947539  -0.75361535 
    2592  0.084616931   -7.3211913            0   -7.1947617  -0.80723215 
Loop time of 0.0144291 on 1 procs for 32 steps with 256 atoms

Pair  time (%) = 0.0135665 (94.0218)
Neigh time (%) = 0 (0)
Comm  time (%) = 0.000426054 (2.95274)
Outpt time (%) = 5.00679e-05 (0.346993)
Other time (%) = 0.000386477 (2.67845)

Nlocal:    256 ave 256 max 256 min
Histogram: 1 0 0 0 0 0 0 0 0 0
Nghost:    1431 ave 1431 max 1431 min
Histogram: 1 0 0 0 0 0 0 0 0 0
Neighs:    11008 ave 11008 max 11008 min
Histogram: 1 0 0 0 0 0 0 0 0 0

Total # of neighbors = 11008
Ave neighs/atom = 43
Neighbor list builds = 0
Dangerous builds = 0
run 32
Memory usage per processor = 1.63113 Mbytes
Step Temp E_pair E_mol TotEng Press 
    2592  0.084616931   -7.3211913            0   -7.1947617  -0.80723215 
    2624  0.082530621   -7.3180716            0   -7.1947593  -0.78218407 
Loop time of 0.014401 on 1 procs for 32 steps with 256 atoms

Pair  time (%) = 0.0135305 (93.9555)
Neigh time (%) = 0 (0)
Comm  time (%) = 0.000432014 (2.9999)
Outpt time (%) = 5.10216e-05 (0.354293)
Other time (%) = 0.00038743 (2.69031)

Nlocal:    256 ave 256 max 256 min
Histogram: 1 0 0 0 0 0 0 0 0 0
Nghost:    1431 ave 1431 max 1431 min
Histogram: 1 0 0 0 0 0 0 0 0 0
Neighs:    11007 ave 11007 max 11007 min
Histogram: 1 0 0 0 0 0 0 0 0 0

Total # of neighbors = 11007
Ave neighs/atom = 42.9961
Neighbor list builds = 0
Dangerous builds = 0
run 32
Memory usage per processor = 1.63113 Mbytes
Step Temp E_pair E_mol TotEng Press 
    2624  0.082530621   -7.3180716            0   -7.1947593  -0.78218407 
    2656  0.085008781   -7.3217938            0   -7.1947788  -0.80450311 
Loop time of 0.014401 on 1 procs for 32 steps with 256 atoms

Pair  time (%) = 0.01353 (93.9522)
Neigh time (%) = 0 (0)
Comm  time (%) = 0.000437021 (3.03467)
Outpt time (%) = 4.81606e-05 (0.334426)
Other time (%) = 0.000385761 (2.67872)

Nlocal:    256 ave 256 max 256 min
Histogram: 1 0 0 0 0 0 0 0 0 0
Nghost:    1431 ave 1431 max 1431 min
Histogram: 1 0 0 0 0 0 0 0 0 0
Neighs:    11008 ave 11008 max 11008 min
Histogram: 1 0 0 0 0 0 0 0 0 0

Total # of neighbors = 11008
Ave neighs/atom = 43
Neighbor list builds = 0
Dangerous builds = 0
run 32
Memory usage per processor = 1.63113 Mbytes
Step Temp E_pair E_mol TotEng Press 
    2656  0.085008781   -7.3217938            0   -7.1947788  -0.80450311 
    2688  0.084843439   -7.3215236            0   -7.1947556  -0.80527478 
Loop time of 0.014411 on 1 procs for 32 steps with 256 atoms

Pair  time (%) = 0.0135391 (93.9498)
Neigh time (%) = 0 (0)
Comm  time (%) = 0.000436544 (3.02925)
Outpt time (%) = 5.19753e-05 (0.360664)
Other time (%) = 0.000383377 (2.66031)

Nlocal:    256 ave 256 max 256 min
Histogram: 1 0 0 0 0 0 0 0 0 0
Nghost:    1431 ave 1431 max 1431 min
Histogram: 1 0 0 0 0 0 0 0 0 0
Neighs:    11008 ave 11008 max 11008 min
Histogram: 1 0 0 0 0 0 0 0 0 0

Total # of neighbors = 11008
Ave neighs/atom = 43
Neighbor list builds = 0
Dangerous builds = 0
run 32
Memory usage per processor = 1.63113 Mbytes
Step Temp E_pair E_mol TotEng Press 
    2688  0.084843439   -7.3215236            0   -7.1947556  -0.80527478 
    2720   0.08568709   -7.3228066            0   -7.1947781  -0.80583222 
Loop time of 0.014447 on 1 procs for 32 steps with 256 atoms

Pair  time (%) = 0.0135665 (93.9054)
Neigh time (%) = 0 (0)
Comm  time (%) = 0.000449657 (3.11247)
Outpt time (%) = 4.91142e-05 (0.339962)
Other time (%) = 0.000381708 (2.64213)

Nlocal:    256 ave 256 max 256 min
Histogram: 1 0 0 0 0 0 0 0 0 0
Nghost:    1431 ave 1431 max 1431 min
Histogram: 1 0 0 0 0 0 0 0 0 0
Neighs:    11008 ave 11008 max 11008 min
Histogram: 1 0 0 0 0 0 0 0 0 0

Total # of neighbors = 11008
Ave neighs/atom = 43
Neighbor list builds = 0
Dangerous builds = 0
run 32
Memory usage per processor = 1.63113 Mbytes
Step Temp E_pair E_mol TotEng Press 
    2720   0.08568709   -7.3228066            0   -7.1947781  -0.80583222 
    2752  0.083682532   -7.3198024            0    -7.194769  -0.79349518 
Loop time of 0.0143971 on 1 procs for 32 steps with 256 atoms

Pair  time (%) = 0.0135281 (93.9638)
Neigh time (%) = 0 (0)
Comm  time (%) = 0.000430346 (2.9891)
Outpt time (%) = 5.07832e-05 (0.352731)
Other time (%) = 0.000387907 (2.69433)

Nlocal:    256 ave 256 max 256 min
Histogram: 1 0 0 0 0 0 0 0 0 0
Nghost:    1431 ave 1431 max 1431 min
Histogram: 1 0 0 0 0 0 0 0 0 0
Neighs:    11008 ave 11008 max 11008 min
Histogram: 1 0 0 0 0 0 0 0 0 0

Total # of neighbors = 11008
Ave neighs/atom = 43
Neighbor list builds = 0
Dangerous builds = 0
run 32
Memory usage per processor = 1.63113 Mbytes
Step Temp E_pair E_mol TotEng Press 
    2752  0.083682532   -7.3198024            0    -7.194769  -0.79349518 
    2784  0.081851756    -7.317056            0   -7.1947579  -0.77598221 
Loop time of 0.01438 on 1 procs for 32 steps with 256 atoms

Pair  time (%) = 0.0135334 (94.1125)
Neigh time (%) = 0 (0)
Comm  time (%) = 0.000448465 (3.11868)
Outpt time (%) = 1.90735e-05 (0.132639)
Other time (%) = 0.000379086 (2.6362)

Nlocal:    256 ave 256 max 256 min
Histogram: 1 0 0 0 0 0 0 0 0 0
Nghost:    1431 ave 1431 max 1431 min
Histogram: 1 0 0 0 0 0 0 0 0 0
Neighs:    11008 ave 11008 max 11008 min
Histogram: 1 0 0 0 0 0 0 0 0 0

Total # of neighbors = 11008
Ave neighs/atom = 43
Neighbor list builds = 0
Dangerous builds = 0
run 32
Memory usage per processor = 1.63113 Mbytes
Step Temp E_pair E_mol TotEng Press 
    2784  0.081851756    -7.317056            0   -7.1947579  -0.77598221 
    2816  0.077789769   -7.3109762            0   -7.1947473  -0.74981298 
Loop time of 0.014364 on 1 procs for 32 steps with 256 atoms

Pair  time (%) = 0.013519 (94.1175)
Neigh time (%) = 0 (0)
Comm  time (%) = 0.000432491 (3.01094)
Outpt time (%) = 1.90735e-05 (0.132787)
Other time (%) = 0.000393391 (2.73873)

Nlocal:    256 ave 256 max 256 min
Histogram: 1 0 0 0 0 0 0 0 0 0
Nghost:    1431 ave 1431 max 1431 min
Histogram: 1 0 0 0 0 0 0 0 0 0
Neighs:    11008 ave 11008 max 11008 min
Histogram: 1 0 0 0 0 0 0 0 0 0

Total # of neighbors = 11008
Ave neighs/atom = 43
Neighbor list builds = 0
Dangerous builds = 0
run 32
Memory usage per processor = 1.63113 Mbytes
Step Temp E_pair E_mol TotEng Press 
    2816  0.077789769   -7.3109762            0   -7.1947473  -0.74981298 
    2848  0.079274147    -7.313191            0   -7.1947443  -0.76106741 
Loop time of 0.01436 on 1 procs for 32 steps with 256 atoms

Pair  time (%) = 0.0135286 (94.2105)
Neigh time (%) = 0 (0)
Comm  time (%) = 0.000429869 (2.99352)
Outpt time (%) = 1.50204e-05 (0.104599)
Other time (%) = 0.000386477 (2.69135)

Nlocal:    256 ave 256 max 256 min
Histogram: 1 0 0 0 0 0 0 0 0 0
Nghost:    1431 ave 1431 max 1431 min
Histogram: 1 0 0 0 0 0 0 0 0 0
Neighs:    11008 ave 11008 max 11008 min
Histogram: 1 0 0 0 0 0 0 0 0 0

Total # of neighbors = 11008
Ave neighs/atom = 43
Neighbor list builds = 0
Dangerous builds = 0
run 32
Memory usage per processor = 1.63113 Mbytes
Step Temp E_pair E_mol TotEng Press 
    2848  0.079274147    -7.313191            0   -7.1947443  -0.76106741 
    2880  0.083639742   -7.3197536            0   -7.1947841  -0.79035035 
Loop time of 0.0143909 on 1 procs for 32 steps with 256 atoms

Pair  time (%) = 0.0135593 (94.2213)
Neigh time (%) = 0 (0)
Comm  time (%) = 0.000428915 (2.98045)
Outpt time (%) = 1.50204e-05 (0.104374)
Other time (%) = 0.000387669 (2.69384)

Nlocal:    256 ave 256 max 256 min
Histogram: 1 0 0 0 0 0 0 0 0 0
Nghost:    1431 ave 1431 max 1431 min
Histogram: 1 0 0 0 0 0 0 0 0 0
Neighs:    11006 ave 11006 max 11006 min
Histogram: 1 0 0 0 0 0 0 0 0 0

Total # of neighbors = 11006
Ave neighs/atom = 42.9922
Neighbor list builds = 0
Dangerous builds = 0
run 32
Memory usage per processor = 1.63113 Mbytes
Step Temp E_pair E_mol TotEng Press 
    2880  0.083639742   -7.3197536            0   -7.1947841  -0.79035035 
    2912  0.082232953   -7.3176388            0   -7.1947712  -0.78343009 
Loop time of 0.0143781 on 1 procs for 32 steps with 256 atoms

Pair  time (%) = 0.0135434 (94.1946)
Neigh time (%) = 0 (0)
Comm  time (%) = 0.000422716 (2.94001)
Outpt time (%) = 2.5034e-05 (0.174112)
Other time (%) = 0.000386953 (2.69127)

Nlocal:    256 ave 256 max 256 min
Histogram: 1 0 0 0 0 0 0 0 0 0
Nghost:    1431 ave 1431 max 1431 min
Histogram: 1 0 0 0 0 0 0 0 0 0
Neighs:    11005 ave 11005 max 11005 min
Histogram: 1 0 0 0 0 0 0 0 0 0

Total # of neighbors = 11005
Ave neighs/atom = 42.9883
Neighbor list builds = 0
Dangerous builds = 0
run 32
Memory usage per processor = 1.63113 Mbytes
Step Temp E_pair E_mol TotEng Press 
    2912  0.082232953   -7.3176388            0   -7.1947712  -0.78343009 
    2944  0.086985921   -7.3247504            0   -7.1947812  -0.82102235 
Loop time of 0.0143831 on 1 procs for 32 steps with 256 atoms

Pair  time (%) = 0.0135498 (94.2066)
Neigh time (%) = 0 (0)
Comm  time (%) = 0.000439882 (3.05833)
Outpt time (%) = 1.50204e-05 (0.104431)
Other time (%) = 0.00037837 (2.63066)

Nlocal:    256 ave 256 max 256 min
Histogram: 1 0 0 0 0 0 0 0 0 0
Nghost:    1431 ave 1431 max 1431 min
Histogram: 1 0 0 0 0 0 0 0 0 0
Neighs:    11007 ave 11007 max 11007 min
Histogram: 1 0 0 0 0 0 0 0 0 0

Total # of neighbors = 11007
Ave neighs/atom = 42.9961
Neighbor list builds = 0
Dangerous builds = 0
run 32
Memory usage per processor = 1.63113 Mbytes
Step Temp E_pair E_mol TotEng Press 
    2944  0.086985921   -7.3247504            0   -7.1947812  -0.82102235 
    2976  0.084331492   -7.3207883            0   -7.1947852  -0.79934974 
Loop time of 0.0143661 on 1 procs for 32 steps with 256 atoms

Pair  time (%) = 0.0135174 (94.0919)
Neigh time (%) = 0 (0)
Comm  time (%) = 0.000456572 (3.17811)
Outpt time (%) = 1.40667e-05 (0.0979156)
Other time (%) = 0.000378132 (2.6321)

Nlocal:    256 ave 256 max 256 min
Histogram: 1 0 0 0 0 0 0 0 0 0
Nghost:    1431 ave 1431 max 1431 min
Histogram: 1 0 0 0 0 0 0 0 0 0
Neighs:    11008 ave 11008 max 11008 min
Histogram: 1 0 0 0 0 0 0 0 0 0

Total # of neighbors = 11008
Ave neighs/atom = 43
Neighbor list builds = 0
Dangerous builds = 0
run 32
Memory usage per processor = 1.63113 Mbytes
Step Temp E_pair E_mol TotEng Press 
    2976  0.084331492   -7.3207883            0   -7.1947852  -0.79934974 
    3008  0.088778889   -7.3274295            0   -7.1947813  -0.83413389 
Loop time of 0.0143461 on 1 procs for 32 steps with 256 atoms

Pair  time (%) = 0.0135033 (94.1252)
Neigh time (%) = 0 (0)
Comm  time (%) = 0.000442982 (3.08781)
Outpt time (%) = 2.00272e-05 (0.1396)
Other time (%) = 0.000379801 (2.64741)

Nlocal:    256 ave 256 max 256 min
Histogram: 1 0 0 0 0 0 0 0 0 0
Nghost:    1431 ave 1431 max 1431 min
Histogram: 1 0 0 0 0 0 0 0 0 0
Neighs:    11008 ave 11008 max 11008 min
Histogram: 1 0 0 0 0 0 0 0 0 0

Total # of neighbors = 11008
Ave neighs/atom = 43
Neighbor list builds = 0
Dangerous builds = 0
run 32
Memory usage per processor = 1.63113 Mbytes
Step Temp E_pair E_mol TotEng Press 
    3008  0.088778889   -7.3274295            0   -7.1947813  -0.83413389 
    3040  0.081816393   -7.3170057            0   -7.1947605    -0.779268 
Loop time of 0.0144129 on 1 procs for 32 steps with 256 atoms

Pair  time (%) = 0.0135884 (94.2798)
Neigh time (%) = 0 (0)
Comm  time (%) = 0.000423193 (2.93621)
Outpt time (%) = 2.00272e-05 (0.138953)
Other time (%) = 0.000381231 (2.64507)

Nlocal:    256 ave 256 max 256 min
Histogram: 1 0 0 0 0 0 0 0 0 0
Nghost:    1431 ave 1431 max 1431 min
Histogram: 1 0 0 0 0 0 0 0 0 0
Neighs:    11008 ave 11008 max 11008 min
Histogram: 1 0 0 0 0 0 0 0 0 0

Total # of neighbors = 11008
Ave neighs/atom = 43
Neighbor list builds = 0
Dangerous builds = 0
run 32
Memory usage per processor = 1.63113 Mbytes
Step Temp E_pair E_mol TotEng Press 
    3040  0.081816393   -7.3170057            0   -7.1947605    -0.779268 
    3072  0.082887895   -7.3185996            0   -7.1947535   -0.7898557 
Loop time of 0.014379 on 1 procs for 32 steps with 256 atoms

Pair  time (%) = 0.0135474 (94.2165)
Neigh time (%) = 0 (0)
Comm  time (%) = 0.000435829 (3.03101)
Outpt time (%) = 1.90735e-05 (0.132648)
Other time (%) = 0.000376701 (2.6198)

Nlocal:    256 ave 256 max 256 min
Histogram: 1 0 0 0 0 0 0 0 0 0
Nghost:    1431 ave 1431 max 1431 min
Histogram: 1 0 0 0 0 0 0 0 0 0
Neighs:    11007 ave 11007 max 11007 min
Histogram: 1 0 0 0 0 0 0 0 0 0

Total # of neighbors = 11007
Ave neighs/atom = 42.9961
Neighbor list builds = 0
Dangerous builds = 0
run 32
Memory usage per processor = 1.63113 Mbytes
Step Temp E_pair E_mol TotEng Press 
    3072  0.082887895   -7.3185996            0   -7.1947535   -0.7898557 
    3104  0.085355787   -7.3223073            0   -7.1947737   -0.8054208 
Loop time of 0.0143869 on 1 procs for 32 steps with 256 atoms

Pair  time (%) = 0.013552 (94.1965)
Neigh time (%) = 0 (0)
Comm  time (%) = 0.000431538 (2.99952)
Outpt time (%) = 1.88351e-05 (0.130918)
Other time (%) = 0.000384569 (2.67305)

Nlocal:    256 ave 256 max 256 min
Histogram: 1 0 0 0 0 0 0 0 0 0
Nghost:    1431 ave 1431 max 1431 min
Histogram: 1 0 0 0 0 0 0 0 0 0
Neighs:    11008 ave 11008 max 11008 min
Histogram: 1 0 0 0 0 0 0 0 0 0

Total # of neighbors = 11008
Ave neighs/atom = 43
Neighbor list builds = 0
Dangerous builds = 0
run 32
Memory usage per processor = 1.63113 Mbytes
Step Temp E_pair E_mol TotEng Press 
    3104  0.085355787   -7.3223073            0   -7.1947737   -0.8054208 
    3136  0.086343672   -7.3237851            0   -7.1947755  -0.81592046 
Loop time of 0.0144041 on 1 procs for 32 steps with 256 atoms

Pair  time (%) = 0.0135515 (94.0809)
Neigh time (%) = 0 (0)
Comm  time (%) = 0.000437975 (3.04064)
Outpt time (%) = 3.00407e-05 (0.208557)
Other time (%) = 0.000384569 (2.66987)

Nlocal:    256 ave 256 max 256 min
Histogram: 1 0 0 0 0 0 0 0 0 0
Nghost:    1431 ave 1431 max 1431 min
Histogram: 1 0 0 0 0 0 0 0 0 0
Neighs:    11008 ave 11008 max 11008 min
Histogram: 1 0 0 0 0 0 0 0 0 0

Total # of neighbors = 11008
Ave neighs/atom = 43
Neighbor list builds = 0
Dangerous builds = 0
run 32
Memory usage per processor = 1.63113 Mbytes
Step Temp E_pair E_mol TotEng Press 
    3136  0.086343672   -7.3237851            0   -7.1947755  -0.81592046 
    3168   0.08725026   -7.3251294            0   -7.1947652  -0.82630836 
Loop time of 0.0143368 on 1 procs for 32 steps with 256 atoms

Pair  time (%) = 0.0135028 (94.1829)
Neigh time (%) = 0 (0)
Comm  time (%) = 0.000426054 (2.97175)
Outpt time (%) = 1.90735e-05 (0.133038)
Other time (%) = 0.000388861 (2.71232)

Nlocal:    256 ave 256 max 256 min
Histogram: 1 0 0 0 0 0 0 0 0 0
Nghost:    1431 ave 1431 max 1431 min
Histogram: 1 0 0 0 0 0 0 0 0 0
Neighs:    11008 ave 11008 max 11008 min
Histogram: 1 0 0 0 0 0 0 0 0 0

Total # of neighbors = 11008
Ave neighs/atom = 43
Neighbor list builds = 0
Dangerous builds = 0
run 32
Memory usage per processor = 1.63113 Mbytes
Step Temp E_pair E_mol TotEng Press 
    3168   0.08725026   -7.3251294            0   -7.1947652  -0.82630836 
    3200  0.083383837   -7.3193526            0   -7.1947654  -0.79039076 
Loop time of 0.0143611 on 1 procs for 32 steps with 256 atoms

Pair  time (%) = 0.0135005 (94.0068)
Neigh time (%) = 0 (0)
Comm  time (%) = 0.000455618 (3.17257)
Outpt time (%) = 1.90735e-05 (0.132813)
Other time (%) = 0.000386 (2.68781)

Nlocal:    256 ave 256 max 256 min
Histogram: 1 0 0 0 0 0 0 0 0 0
Nghost:    1431 ave 1431 max 1431 min
Histogram: 1 0 0 0 0 0 0 0 0 0
Neighs:    11007 ave 11007 max 11007 min
Histogram: 1 0 0 0 0 0 0 0 0 0

Total # of neighbors = 11007
Ave neighs/atom = 42.9961
Neighbor list builds = 0
Dangerous builds = 0
run 32
Memory usage per processor = 1.63113 Mbytes
Step Temp E_pair E_mol TotEng Press 
    3200  0.083383837   -7.3193526            0   -7.1947654  -0.79039076 
    3232  0.082512046   -7.3180271            0   -7.1947425  -0.78011224 
[...]
Other time (%) = 0.00038743 (2.70513)

Nlocal:    256 ave 256 max 256 min
Histogram: 1 0 0 0 0 0 0 0 0 0
Nghost:    1431 ave 1431 max 1431 min
Histogram: 1 0 0 0 0 0 0 0 0 0
Neighs:    11007 ave 11007 max 11007 min
Histogram: 1 0 0 0 0 0 0 0 0 0

Total # of neighbors = 11007
Ave neighs/atom = 42.9961
Neighbor list builds = 0
Dangerous builds = 0
run 32
Memory usage per processor = 1.63113 Mbytes
Step Temp E_pair E_mol TotEng Press 
   31968   0.08559825   -7.3225479            0    -7.194652  -0.80127347 
   32000  0.085906333   -7.3230037            0   -7.1946475  -0.80886568 
Loop time of 0.0143261 on 1 procs for 32 steps with 256 atoms

Pair  time (%) = 0.0134883 (94.1519)
Neigh time (%) = 0 (0)
Comm  time (%) = 0.000422239 (2.94734)
Outpt time (%) = 1.90735e-05 (0.133138)
Other time (%) = 0.00039649 (2.76761)

Nlocal:    256 ave 256 max 256 min
Histogram: 1 0 0 0 0 0 0 0 0 0
Nghost:    1431 ave 1431 max 1431 min
Histogram: 1 0 0 0 0 0 0 0 0 0
Neighs:    11006 ave 11006 max 11006 min
Histogram: 1 0 0 0 0 0 0 0 0 0

Total # of neighbors = 11006
Ave neighs/atom = 42.9922
Neighbor list builds = 0
Dangerous builds = 0
run 32
Memory usage per processor = 1.63113 Mbytes
Step Temp E_pair E_mol TotEng Press 
   32000  0.085906333   -7.3230037            0   -7.1946475  -0.80886568 
   32032  0.085093519   -7.3218038            0   -7.1946622  -0.80214914 
Loop time of 0.014313 on 1 procs for 32 steps with 256 atoms

Pair  time (%) = 0.0134718 (94.1232)
Neigh time (%) = 0 (0)
Comm  time (%) = 0.000418663 (2.92506)
Outpt time (%) = 2.5034e-05 (0.174904)
Other time (%) = 0.000397444 (2.77681)

Nlocal:    256 ave 256 max 256 min
Histogram: 1 0 0 0 0 0 0 0 0 0
Nghost:    1431 ave 1431 max 1431 min
Histogram: 1 0 0 0 0 0 0 0 0 0
Neighs:    11007 ave 11007 max 11007 min
Histogram: 1 0 0 0 0 0 0 0 0 0

Total # of neighbors = 11007
Ave neighs/atom = 42.9961
Neighbor list builds = 0
Dangerous builds = 0
run 32
Memory usage per processor = 1.63113 Mbytes
Step Temp E_pair E_mol TotEng Press 
   32032  0.085093519   -7.3218038            0   -7.1946622  -0.80214914 
   32064  0.079370726   -7.3132328            0   -7.1946418  -0.75175393 
Loop time of 0.014313 on 1 procs for 32 steps with 256 atoms

Pair  time (%) = 0.0134692 (94.1049)
Neigh time (%) = 0 (0)
Comm  time (%) = 0.000428915 (2.99669)
Outpt time (%) = 1.88351e-05 (0.131594)
Other time (%) = 0.000396013 (2.76681)

Nlocal:    256 ave 256 max 256 min
Histogram: 1 0 0 0 0 0 0 0 0 0
Nghost:    1431 ave 1431 max 1431 min
Histogram: 1 0 0 0 0 0 0 0 0 0
Neighs:    11008 ave 11008 max 11008 min
Histogram: 1 0 0 0 0 0 0 0 0 0

Total # of neighbors = 11008
Ave neighs/atom = 43
Neighbor list builds = 0
Dangerous builds = 0
run 32
Memory usage per processor = 1.63113 Mbytes
Step Temp E_pair E_mol TotEng Press 
   32064  0.079370726   -7.3132328            0   -7.1946418  -0.75175393 
   32096   0.08379145    -7.319836            0   -7.1946398   -0.7951564 
Loop time of 0.014282 on 1 procs for 32 steps with 256 atoms

Pair  time (%) = 0.0134342 (94.0637)
Neigh time (%) = 0 (0)
Comm  time (%) = 0.000432491 (3.02823)
Outpt time (%) = 1.90735e-05 (0.133549)
Other time (%) = 0.000396252 (2.77449)

Nlocal:    256 ave 256 max 256 min
Histogram: 1 0 0 0 0 0 0 0 0 0
Nghost:    1431 ave 1431 max 1431 min
Histogram: 1 0 0 0 0 0 0 0 0 0
Neighs:    11008 ave 11008 max 11008 min
Histogram: 1 0 0 0 0 0 0 0 0 0

Total # of neighbors = 11008
Ave neighs/atom = 43
Neighbor list builds = 0
Dangerous builds = 0
run 32
Memory usage per processor = 1.63113 Mbytes
Step Temp E_pair E_mol TotEng Press 
   32096   0.08379145    -7.319836            0   -7.1946398   -0.7951564 
   32128  0.077306848   -7.3101294            0   -7.1946221   -0.7384222 
Loop time of 0.0143139 on 1 procs for 32 steps with 256 atoms

Pair  time (%) = 0.0134819 (94.1869)
Neigh time (%) = 0 (0)
Comm  time (%) = 0.000436068 (3.04645)
Outpt time (%) = 1.50204e-05 (0.104935)
Other time (%) = 0.000380993 (2.66169)

Nlocal:    256 ave 256 max 256 min
Histogram: 1 0 0 0 0 0 0 0 0 0
Nghost:    1431 ave 1431 max 1431 min
Histogram: 1 0 0 0 0 0 0 0 0 0
Neighs:    11007 ave 11007 max 11007 min
Histogram: 1 0 0 0 0 0 0 0 0 0

Total # of neighbors = 11007
Ave neighs/atom = 42.9961
Neighbor list builds = 0
Dangerous builds = 0
run 32
Memory usage per processor = 1.63113 Mbytes
Step Temp E_pair E_mol TotEng Press 
   32128  0.077306848   -7.3101294            0   -7.1946221   -0.7384222 
   32160     0.084451   -7.3208329            0   -7.1946513  -0.79413324 
Loop time of 0.0143189 on 1 procs for 32 steps with 256 atoms

Pair  time (%) = 0.0134869 (94.189)
Neigh time (%) = 0 (0)
Comm  time (%) = 0.000430822 (3.00876)
Outpt time (%) = 1.90735e-05 (0.133205)
Other time (%) = 0.000382185 (2.66909)

Nlocal:    256 ave 256 max 256 min
Histogram: 1 0 0 0 0 0 0 0 0 0
Nghost:    1431 ave 1431 max 1431 min
Histogram: 1 0 0 0 0 0 0 0 0 0
Neighs:    11008 ave 11008 max 11008 min
Histogram: 1 0 0 0 0 0 0 0 0 0

Total # of neighbors = 11008
Ave neighs/atom = 43
Neighbor list builds = 0
Dangerous builds = 0
run 32
Memory usage per processor = 1.63113 Mbytes
Step Temp E_pair E_mol TotEng Press 
   32160     0.084451   -7.3208329            0   -7.1946513  -0.79413324 
   32192  0.083277338   -7.3190747            0   -7.1946466  -0.78193807 
Loop time of 0.0142879 on 1 procs for 32 steps with 256 atoms

Pair  time (%) = 0.013448 (94.1213)
Neigh time (%) = 0 (0)
Comm  time (%) = 0.000434637 (3.04198)
Outpt time (%) = 1.88351e-05 (0.131825)
Other time (%) = 0.000386477 (2.70491)

Nlocal:    256 ave 256 max 256 min
Histogram: 1 0 0 0 0 0 0 0 0 0
Nghost:    1431 ave 1431 max 1431 min
Histogram: 1 0 0 0 0 0 0 0 0 0
Neighs:    11006 ave 11006 max 11006 min
Histogram: 1 0 0 0 0 0 0 0 0 0

Total # of neighbors = 11006
Ave neighs/atom = 42.9922
Neighbor list builds = 0
Dangerous builds = 0
run 32
Memory usage per processor = 1.63113 Mbytes
Step Temp E_pair E_mol TotEng Press 
   32192  0.083277338   -7.3190747            0   -7.1946466  -0.78193807 
   32224  0.082115602   -7.3173258            0   -7.1946336   -0.7772878 
Loop time of 0.0143211 on 1 procs for 32 steps with 256 atoms

Pair  time (%) = 0.0134797 (94.1249)
Neigh time (%) = 0 (0)
Comm  time (%) = 0.000429392 (2.99832)
Outpt time (%) = 1.90735e-05 (0.133185)
Other time (%) = 0.000392914 (2.7436)

Nlocal:    256 ave 256 max 256 min
Histogram: 1 0 0 0 0 0 0 0 0 0
Nghost:    1431 ave 1431 max 1431 min
Histogram: 1 0 0 0 0 0 0 0 0 0
Neighs:    11008 ave 11008 max 11008 min
Histogram: 1 0 0 0 0 0 0 0 0 0

Total # of neighbors = 11008
Ave neighs/atom = 43
Neighbor list builds = 0
Dangerous builds = 0
run 32
Memory usage per processor = 1.63113 Mbytes
Step Temp E_pair E_mol TotEng Press 
   32224  0.082115602   -7.3173258            0   -7.1946336   -0.7772878 
   32256  0.082432728   -7.3177934            0   -7.1946273  -0.77961837 
Loop time of 0.014322 on 1 procs for 32 steps with 256 atoms

Pair  time (%) = 0.013495 (94.2252)
Neigh time (%) = 0 (0)
Comm  time (%) = 0.000427485 (2.9848)
Outpt time (%) = 1.88351e-05 (0.131511)
Other time (%) = 0.000380754 (2.65852)

Nlocal:    256 ave 256 max 256 min
Histogram: 1 0 0 0 0 0 0 0 0 0
Nghost:    1431 ave 1431 max 1431 min
Histogram: 1 0 0 0 0 0 0 0 0 0
Neighs:    11008 ave 11008 max 11008 min
Histogram: 1 0 0 0 0 0 0 0 0 0

Total # of neighbors = 11008
Ave neighs/atom = 43
Neighbor list builds = 0
Dangerous builds = 0
run 32
Memory usage per processor = 1.63113 Mbytes
Step Temp E_pair E_mol TotEng Press 
   32256  0.082432728   -7.3177934            0   -7.1946273  -0.77961837 
   32288  0.078301015   -7.3116187            0    -7.194626  -0.73915277 
Loop time of 0.014286 on 1 procs for 32 steps with 256 atoms

Pair  time (%) = 0.0134447 (94.1105)
Neigh time (%) = 0 (0)
Comm  time (%) = 0.000434875 (3.04406)
Outpt time (%) = 1.78814e-05 (0.125167)
Other time (%) = 0.000388622 (2.72029)

Nlocal:    256 ave 256 max 256 min
Histogram: 1 0 0 0 0 0 0 0 0 0
Nghost:    1431 ave 1431 max 1431 min
Histogram: 1 0 0 0 0 0 0 0 0 0
Neighs:    11007 ave 11007 max 11007 min
Histogram: 1 0 0 0 0 0 0 0 0 0

Total # of neighbors = 11007
Ave neighs/atom = 42.9961
Neighbor list builds = 0
Dangerous builds = 0
run 32
Memory usage per processor = 1.63113 Mbytes
Step Temp E_pair E_mol TotEng Press 
   32288  0.078301015   -7.3116187            0    -7.194626  -0.73915277 
   32320  0.083401308   -7.3192629            0   -7.1946496  -0.79027881 
Loop time of 0.0143039 on 1 procs for 32 steps with 256 atoms

Pair  time (%) = 0.0134609 (94.1062)
Neigh time (%) = 0 (0)
Comm  time (%) = 0.000428915 (2.99858)
Outpt time (%) = 2.7895e-05 (0.195016)
Other time (%) = 0.000386238 (2.70023)

Nlocal:    256 ave 256 max 256 min
Histogram: 1 0 0 0 0 0 0 0 0 0
Nghost:    1431 ave 1431 max 1431 min
Histogram: 1 0 0 0 0 0 0 0 0 0
Neighs:    11007 ave 11007 max 11007 min
Histogram: 1 0 0 0 0 0 0 0 0 0

Total # of neighbors = 11007
Ave neighs/atom = 42.9961
Neighbor list builds = 0
Dangerous builds = 0
run 32
Memory usage per processor = 1.63113 Mbytes
Step Temp E_pair E_mol TotEng Press 
   32320  0.083401308   -7.3192629            0   -7.1946496  -0.79027881 
   32352  0.082143792   -7.3173853            0    -7.194651  -0.77329553 
Loop time of 0.0143211 on 1 procs for 32 steps with 256 atoms

Pair  time (%) = 0.0134807 (94.1316)
Neigh time (%) = 0 (0)
Comm  time (%) = 0.000438452 (3.06158)
Outpt time (%) = 1.50204e-05 (0.104883)
Other time (%) = 0.000386953 (2.70198)

Nlocal:    256 ave 256 max 256 min
Histogram: 1 0 0 0 0 0 0 0 0 0
Nghost:    1431 ave 1431 max 1431 min
Histogram: 1 0 0 0 0 0 0 0 0 0
Neighs:    11008 ave 11008 max 11008 min
Histogram: 1 0 0 0 0 0 0 0 0 0

Total # of neighbors = 11008
Ave neighs/atom = 43
Neighbor list builds = 0
Dangerous builds = 0
run 32
Memory usage per processor = 1.63113 Mbytes
Step Temp E_pair E_mol TotEng Press 
   32352  0.082143792   -7.3173853            0    -7.194651  -0.77329553 
   32384  0.081511727   -7.3164253            0   -7.1946353  -0.76815256 
Loop time of 0.0142961 on 1 procs for 32 steps with 256 atoms

Pair  time (%) = 0.0134585 (94.1413)
Neigh time (%) = 0 (0)
Comm  time (%) = 0.000429153 (3.0019)
Outpt time (%) = 1.90735e-05 (0.133418)
Other time (%) = 0.000389338 (2.72339)

Nlocal:    256 ave 256 max 256 min
Histogram: 1 0 0 0 0 0 0 0 0 0
Nghost:    1431 ave 1431 max 1431 min
Histogram: 1 0 0 0 0 0 0 0 0 0
Neighs:    11007 ave 11007 max 11007 min
Histogram: 1 0 0 0 0 0 0 0 0 0

Total # of neighbors = 11007
Ave neighs/atom = 42.9961
Neighbor list builds = 0
Dangerous builds = 0
run 32
Memory usage per processor = 1.63113 Mbytes
Step Temp E_pair E_mol TotEng Press 
   32384  0.081511727   -7.3164253            0   -7.1946353  -0.76815256 
   32416  0.079068925   -7.3127715            0   -7.1946314   -0.7473055 
Loop time of 0.014312 on 1 procs for 32 steps with 256 atoms

Pair  time (%) = 0.0134773 (94.1678)
Neigh time (%) = 0 (0)
Comm  time (%) = 0.000428915 (2.99688)
Outpt time (%) = 1.90735e-05 (0.133269)
Other time (%) = 0.000386715 (2.70203)

Nlocal:    256 ave 256 max 256 min
Histogram: 1 0 0 0 0 0 0 0 0 0
Nghost:    1431 ave 1431 max 1431 min
Histogram: 1 0 0 0 0 0 0 0 0 0
Neighs:    11006 ave 11006 max 11006 min
Histogram: 1 0 0 0 0 0 0 0 0 0

Total # of neighbors = 11006
Ave neighs/atom = 42.9922
Neighbor list builds = 0
Dangerous builds = 0
run 32
Memory usage per processor = 1.63113 Mbytes
Step Temp E_pair E_mol TotEng Press 
   32416  0.079068925   -7.3127715            0   -7.1946314   -0.7473055 
   32448   0.08285686   -7.3184449            0   -7.1946451  -0.78719755 
Loop time of 0.0143189 on 1 procs for 32 steps with 256 atoms

Pair  time (%) = 0.0134847 (94.174)
Neigh time (%) = 0 (0)
Comm  time (%) = 0.000427961 (2.98878)
Outpt time (%) = 1.88351e-05 (0.13154)
Other time (%) = 0.00038743 (2.70572)

Nlocal:    256 ave 256 max 256 min
Histogram: 1 0 0 0 0 0 0 0 0 0
Nghost:    1431 ave 1431 max 1431 min
Histogram: 1 0 0 0 0 0 0 0 0 0
Neighs:    11008 ave 11008 max 11008 min
Histogram: 1 0 0 0 0 0 0 0 0 0

Total # of neighbors = 11008
Ave neighs/atom = 43
Neighbor list builds = 0
Dangerous builds = 0
run 32
Memory usage per processor = 1.63113 Mbytes
Step Temp E_pair E_mol TotEng Press 
   32448   0.08285686   -7.3184449            0   -7.1946451  -0.78719755 
   32480  0.086910844   -7.3245146            0   -7.1946576  -0.81044389 
Loop time of 0.014313 on 1 procs for 32 steps with 256 atoms

Pair  time (%) = 0.013474 (94.1382)
Neigh time (%) = 0 (0)
Comm  time (%) = 0.000440359 (3.07664)
Outpt time (%) = 1.90735e-05 (0.13326)
Other time (%) = 0.000379562 (2.65187)

Nlocal:    256 ave 256 max 256 min
Histogram: 1 0 0 0 0 0 0 0 0 0
Nghost:    1431 ave 1431 max 1431 min
Histogram: 1 0 0 0 0 0 0 0 0 0
Neighs:    11008 ave 11008 max 11008 min
Histogram: 1 0 0 0 0 0 0 0 0 0

Total # of neighbors = 11008
Ave neighs/atom = 43
Neighbor list builds = 0
Dangerous builds = 0
run 32
Memory usage per processor = 1.63113 Mbytes
Step Temp E_pair E_mol TotEng Press 
   32480  0.086910844   -7.3245146            0   -7.1946576  -0.81044389 
   32512  0.081252531   -7.3160563            0   -7.1946536  -0.76953953 
Loop time of 0.014297 on 1 procs for 32 steps with 256 atoms

Pair  time (%) = 0.0134671 (94.195)
Neigh time (%) = 0 (0)
Comm  time (%) = 0.000435352 (3.04506)
Outpt time (%) = 1.50204e-05 (0.10506)
Other time (%) = 0.000379562 (2.65484)

Nlocal:    256 ave 256 max 256 min
Histogram: 1 0 0 0 0 0 0 0 0 0
Nghost:    1431 ave 1431 max 1431 min
Histogram: 1 0 0 0 0 0 0 0 0 0
Neighs:    11007 ave 11007 max 11007 min
Histogram: 1 0 0 0 0 0 0 0 0 0

Total # of neighbors = 11007
Ave neighs/atom = 42.9961
Neighbor list builds = 0
Dangerous builds = 0
run 32
Memory usage per processor = 1.63113 Mbytes
Step Temp E_pair E_mol TotEng Press 
   32512  0.081252531   -7.3160563            0   -7.1946536  -0.76953953 
   32544  0.083100805   -7.3188259            0   -7.1946617  -0.78398829 
Loop time of 0.014349 on 1 procs for 32 steps with 256 atoms

Pair  time (%) = 0.013504 (94.1114)
Neigh time (%) = 0 (0)
Comm  time (%) = 0.000441074 (3.07391)
Outpt time (%) = 2.00272e-05 (0.139572)
Other time (%) = 0.000383854 (2.67513)

Nlocal:    256 ave 256 max 256 min
Histogram: 1 0 0 0 0 0 0 0 0 0
Nghost:    1431 ave 1431 max 1431 min
Histogram: 1 0 0 0 0 0 0 0 0 0
Neighs:    11006 ave 11006 max 11006 min
Histogram: 1 0 0 0 0 0 0 0 0 0

Total # of neighbors = 11006
Ave neighs/atom = 42.9922
Neighbor list builds = 0
Dangerous builds = 0
run 32
Memory usage per processor = 1.63113 Mbytes
Step Temp E_pair E_mol TotEng Press 
   32544  0.083100805   -7.3188259            0   -7.1946617  -0.78398829 
   32576   0.08348685   -7.3193993            0   -7.1946582  -0.78961685 
Loop time of 0.014322 on 1 procs for 32 steps with 256 atoms

Pair  time (%) = 0.013485 (94.1552)
Neigh time (%) = 0 (0)
Comm  time (%) = 0.000436783 (3.04972)
Outpt time (%) = 1.90735e-05 (0.133176)
Other time (%) = 0.000381231 (2.66185)

Nlocal:    256 ave 256 max 256 min
Histogram: 1 0 0 0 0 0 0 0 0 0
Nghost:    1431 ave 1431 max 1431 min
Histogram: 1 0 0 0 0 0 0 0 0 0
Neighs:    11007 ave 11007 max 11007 min
Histogram: 1 0 0 0 0 0 0 0 0 0

Total # of neighbors = 11007
Ave neighs/atom = 42.9961
Neighbor list builds = 0
Dangerous builds = 0
run 32
Memory usage per processor = 1.63113 Mbytes
Step Temp E_pair E_mol TotEng Press 
   32576   0.08348685   -7.3193993            0   -7.1946582  -0.78961685 
   32608  0.085928974   -7.3230522            0   -7.1946622  -0.80675423 
Loop time of 0.014302 on 1 procs for 32 steps with 256 atoms

Pair  time (%) = 0.0134695 (94.1787)
Neigh time (%) = 0 (0)
Comm  time (%) = 0.000426769 (2.98398)
Outpt time (%) = 1.88351e-05 (0.131695)
Other time (%) = 0.000386953 (2.70559)

Nlocal:    256 ave 256 max 256 min
Histogram: 1 0 0 0 0 0 0 0 0 0
Nghost:    1431 ave 1431 max 1431 min
Histogram: 1 0 0 0 0 0 0 0 0 0
Neighs:    11008 ave 11008 max 11008 min
Histogram: 1 0 0 0 0 0 0 0 0 0

Total # of neighbors = 11008
Ave neighs/atom = 43
Neighbor list builds = 0
Dangerous builds = 0
run 32
Memory usage per processor = 1.63113 Mbytes
Step Temp E_pair E_mol TotEng Press 
   32608  0.085928974   -7.3230522            0   -7.1946622  -0.80675423 
   32640  0.083948951   -7.3201009            0   -7.1946694  -0.79222657 
Loop time of 0.014286 on 1 procs for 32 steps with 256 atoms

Pair  time (%) = 0.0134544 (94.1789)
Neigh time (%) = 0 (0)
Comm  time (%) = 0.000431299 (3.01903)
Outpt time (%) = 1.88351e-05 (0.131842)
Other time (%) = 0.00038147 (2.67023)

Nlocal:    256 ave 256 max 256 min
Histogram: 1 0 0 0 0 0 0 0 0 0
Nghost:    1431 ave 1431 max 1431 min
Histogram: 1 0 0 0 0 0 0 0 0 0
Neighs:    11008 ave 11008 max 11008 min
Histogram: 1 0 0 0 0 0 0 0 0 0

Total # of neighbors = 11008
Ave neighs/atom = 43
Neighbor list builds = 0
Dangerous builds = 0
run 32
Memory usage per processor = 1.63113 Mbytes
Step Temp E_pair E_mol TotEng Press 
   32640  0.083948951   -7.3201009            0   -7.1946694  -0.79222657 
   32672  0.083664208   -7.3196604            0   -7.1946543  -0.79285515 
Loop time of 0.0143521 on 1 procs for 32 steps with 256 atoms

Pair  time (%) = 0.0135005 (94.0661)
Neigh time (%) = 0 (0)
Comm  time (%) = 0.000439882 (3.06494)
Outpt time (%) = 1.50204e-05 (0.104656)
Other time (%) = 0.000396729 (2.76426)

Nlocal:    256 ave 256 max 256 min
Histogram: 1 0 0 0 0 0 0 0 0 0
Nghost:    1431 ave 1431 max 1431 min
Histogram: 1 0 0 0 0 0 0 0 0 0
Neighs:    11008 ave 11008 max 11008 min
Histogram: 1 0 0 0 0 0 0 0 0 0

Total # of neighbors = 11008
Ave neighs/atom = 43
Neighbor list builds = 0
Dangerous builds = 0
run 32
Memory usage per processor = 1.63113 Mbytes
Step Temp E_pair E_mol TotEng Press 
   32672  0.083664208   -7.3196604            0   -7.1946543  -0.79285515 
   32704  0.084464803   -7.3208516            0   -7.1946493  -0.79235747 
Loop time of 0.014328 on 1 procs for 32 steps with 256 atoms

Pair  time (%) = 0.0134888 (94.1427)
Neigh time (%) = 0 (0)
Comm  time (%) = 0.000440598 (3.07508)
Outpt time (%) = 1.90735e-05 (0.13312)
Other time (%) = 0.000379562 (2.64909)

Nlocal:    256 ave 256 max 256 min
Histogram: 1 0 0 0 0 0 0 0 0 0
Nghost:    1431 ave 1431 max 1431 min
Histogram: 1 0 0 0 0 0 0 0 0 0
Neighs:    11009 ave 11009 max 11009 min
Histogram: 1 0 0 0 0 0 0 0 0 0

Total # of neighbors = 11009
Ave neighs/atom = 43.0039
Neighbor list builds = 0
Dangerous builds = 0
run 32
Memory usage per processor = 1.63113 Mbytes
Step Temp E_pair E_mol TotEng Press 
   32704  0.084464803   -7.3208516            0   -7.1946493  -0.79235747 
   32736  0.082272437   -7.3175661            0   -7.1946395  -0.77904328 
Loop time of 0.014308 on 1 procs for 32 steps with 256 atoms

Pair  time (%) = 0.013468 (94.1295)
Neigh time (%) = 0 (0)
Comm  time (%) = 0.000432968 (3.02606)
Outpt time (%) = 1.90735e-05 (0.133307)
Other time (%) = 0.000387907 (2.71112)

Nlocal:    256 ave 256 max 256 min
Histogram: 1 0 0 0 0 0 0 0 0 0
Nghost:    1431 ave 1431 max 1431 min
Histogram: 1 0 0 0 0 0 0 0 0 0
Neighs:    11008 ave 11008 max 11008 min
Histogram: 1 0 0 0 0 0 0 0 0 0

Total # of neighbors = 11008
Ave neighs/atom = 43
Neighbor list builds = 0
Dangerous builds = 0
run 32
Memory usage per processor = 1.63113 Mbytes
Step Temp E_pair E_mol TotEng Press 
   32736  0.082272437   -7.3175661            0   -7.1946395  -0.77904328 
   32768  0.076951203   -7.3096078            0   -7.1946319  -0.73433514 
Loop time of 0.0143039 on 1 procs for 32 steps with 256 atoms

Pair  time (%) = 0.0134642 (94.1295)
Neigh time (%) = 0 (0)
Comm  time (%) = 0.000431299 (3.01525)
Outpt time (%) = 1.88351e-05 (0.131678)
Other time (%) = 0.000389576 (2.72356)

Nlocal:    256 ave 256 max 256 min
Histogram: 1 0 0 0 0 0 0 0 0 0
Nghost:    1431 ave 1431 max 1431 min
Histogram: 1 0 0 0 0 0 0 0 0 0
Neighs:    11007 ave 11007 max 11007 min
Histogram: 1 0 0 0 0 0 0 0 0 0

Total # of neighbors = 11007
Ave neighs/atom = 42.9961
Neighbor list builds = 0
Dangerous builds = 0
