
256 atoms
1 atom types

0.0 6.25294117647 xlo xhi
0.0 6.25294117647 ylo yhi
0.0 6.25294117647 zlo zhi

Masses

1	1.0

Atoms

1	1	0.0	0.0	0.0
2	1	0.781617647059	0.781617647059	0.0
3	1	0.781617647059	0.0	0.781617647059
4	1	0.0	0.781617647059	0.781617647059
5	1	0.0	0.0	1.56323529412
6	1	0.781617647059	0.781617647059	1.56323529412
7	1	0.781617647059	0.0	2.34485294118
8	1	0.0	0.781617647059	2.34485294118
9	1	0.0	0.0	3.12647058824
10	1	0.781617647059	0.781617647059	3.12647058824
11	1	0.781617647059	0.0	3.90808823529
12	1	0.0	0.781617647059	3.90808823529
13	1	0.0	0.0	4.68970588235
14	1	0.781617647059	0.781617647059	4.68970588235
15	1	0.781617647059	0.0	5.47132352941
16	1	0.0	0.781617647059	5.47132352941
17	1	0.0	1.56323529412	0.0
18	1	0.781617647059	2.34485294118	0.0
19	1	0.781617647059	1.56323529412	0.781617647059
20	1	0.0	2.34485294118	0.781617647059
21	1	0.0	1.56323529412	1.56323529412
22	1	0.781617647059	2.34485294118	1.56323529412
23	1	0.781617647059	1.56323529412	2.34485294118
24	1	0.0	2.34485294118	2.34485294118
25	1	0.0	1.56323529412	3.12647058824
26	1	0.781617647059	2.34485294118	3.12647058824
27	1	0.781617647059	1.56323529412	3.90808823529
28	1	0.0	2.34485294118	3.90808823529
29	1	0.0	1.56323529412	4.68970588235
30	1	0.781617647059	2.34485294118	4.68970588235
31	1	0.781617647059	1.56323529412	5.47132352941
32	1	0.0	2.34485294118	5.47132352941
33	1	0.0	3.12647058824	0.0
34	1	0.781617647059	3.90808823529	0.0
35	1	0.781617647059	3.12647058824	0.781617647059
36	1	0.0	3.90808823529	0.781617647059
37	1	0.0	3.12647058824	1.56323529412
38	1	0.781617647059	3.90808823529	1.56323529412
39	1	0.781617647059	3.12647058824	2.34485294118
40	1	0.0	3.90808823529	2.34485294118
41	1	0.0	3.12647058824	3.12647058824
42	1	0.781617647059	3.90808823529	3.12647058824
43	1	0.781617647059	3.12647058824	3.90808823529
44	1	0.0	3.90808823529	3.90808823529
45	1	0.0	3.12647058824	4.68970588235
46	1	0.781617647059	3.90808823529	4.68970588235
47	1	0.781617647059	3.12647058824	5.47132352941
48	1	0.0	3.90808823529	5.47132352941
49	1	0.0	4.68970588235	0.0
50	1	0.781617647059	5.47132352941	0.0
51	1	0.781617647059	4.68970588235	0.781617647059
52	1	0.0	5.47132352941	0.781617647059
53	1	0.0	4.68970588235	1.56323529412
54	1	0.781617647059	5.47132352941	1.56323529412
55	1	0.781617647059	4.68970588235	2.34485294118
56	1	0.0	5.47132352941	2.34485294118
57	1	0.0	4.68970588235	3.12647058824
58	1	0.781617647059	5.47132352941	3.12647058824
59	1	0.781617647059	4.68970588235	3.90808823529
60	1	0.0	5.47132352941	3.90808823529
61	1	0.0	4.68970588235	4.68970588235
62	1	0.781617647059	5.47132352941	4.68970588235
63	1	0.781617647059	4.68970588235	5.47132352941
64	1	0.0	5.47132352941	5.47132352941
65	1	1.56323529412	0.0	0.0
66	1	2.34485294118	0.781617647059	0.0
67	1	2.34485294118	0.0	0.781617647059
68	1	1.56323529412	0.781617647059	0.781617647059
69	1	1.56323529412	0.0	1.56323529412
70	1	2.34485294118	0.781617647059	1.56323529412
71	1	2.34485294118	0.0	2.34485294118
72	1	1.56323529412	0.781617647059	2.34485294118
73	1	1.56323529412	0.0	3.12647058824
74	1	2.34485294118	0.781617647059	3.12647058824
75	1	2.34485294118	0.0	3.90808823529
76	1	1.56323529412	0.781617647059	3.90808823529
77	1	1.56323529412	0.0	4.68970588235
78	1	2.34485294118	0.781617647059	4.68970588235
79	1	2.34485294118	0.0	5.47132352941
80	1	1.56323529412	0.781617647059	5.47132352941
81	1	1.56323529412	1.56323529412	0.0
82	1	2.34485294118	2.34485294118	0.0
83	1	2.34485294118	1.56323529412	0.781617647059
84	1	1.56323529412	2.34485294118	0.781617647059
85	1	1.56323529412	1.56323529412	1.56323529412
86	1	2.34485294118	2.34485294118	1.56323529412
87	1	2.34485294118	1.56323529412	2.34485294118
88	1	1.56323529412	2.34485294118	2.34485294118
89	1	1.56323529412	1.56323529412	3.12647058824
90	1	2.34485294118	2.34485294118	3.12647058824
91	1	2.34485294118	1.56323529412	3.90808823529
92	1	1.56323529412	2.34485294118	3.90808823529
93	1	1.56323529412	1.56323529412	4.68970588235
94	1	2.34485294118	2.34485294118	4.68970588235
95	1	2.34485294118	1.56323529412	5.47132352941
96	1	1.56323529412	2.34485294118	5.47132352941
97	1	1.56323529412	3.12647058824	0.0
98	1	2.34485294118	3.90808823529	0.0
99	1	2.34485294118	3.12647058824	0.781617647059
100	1	1.56323529412	3.90808823529	0.781617647059
101	1	1.56323529412	3.12647058824	1.56323529412
102	1	2.34485294118	3.90808823529	1.56323529412
103	1	2.34485294118	3.12647058824	2.34485294118
104	1	1.56323529412	3.90808823529	2.34485294118
105	1	1.56323529412	3.12647058824	3.12647058824
106	1	2.34485294118	3.90808823529	3.12647058824
107	1	2.34485294118	3.12647058824	3.90808823529
108	1	1.56323529412	3.90808823529	3.90808823529
109	1	1.56323529412	3.12647058824	4.68970588235
110	1	2.34485294118	3.90808823529	4.68970588235
111	1	2.34485294118	3.12647058824	5.47132352941
112	1	1.56323529412	3.90808823529	5.47132352941
113	1	1.56323529412	4.68970588235	0.0
114	1	2.34485294118	5.47132352941	0.0
115	1	2.34485294118	4.68970588235	0.781617647059
116	1	1.56323529412	5.47132352941	0.781617647059
117	1	1.56323529412	4.68970588235	1.56323529412
118	1	2.34485294118	5.47132352941	1.56323529412
119	1	2.34485294118	4.68970588235	2.34485294118
120	1	1.56323529412	5.47132352941	2.34485294118
121	1	1.56323529412	4.68970588235	3.12647058824
122	1	2.34485294118	5.47132352941	3.12647058824
123	1	2.34485294118	4.68970588235	3.90808823529
124	1	1.56323529412	5.47132352941	3.90808823529
125	1	1.56323529412	4.68970588235	4.68970588235
126	1	2.34485294118	5.47132352941	4.68970588235
127	1	2.34485294118	4.68970588235	5.47132352941
128	1	1.56323529412	5.47132352941	5.47132352941
129	1	3.12647058824	0.0	0.0
130	1	3.90808823529	0.781617647059	0.0
131	1	3.90808823529	0.0	0.781617647059
132	1	3.12647058824	0.781617647059	0.781617647059
133	1	3.12647058824	0.0	1.56323529412
134	1	3.90808823529	0.781617647059	1.56323529412
135	1	3.90808823529	0.0	2.34485294118
136	1	3.12647058824	0.781617647059	2.34485294118
137	1	3.12647058824	0.0	3.12647058824
138	1	3.90808823529	0.781617647059	3.12647058824
139	1	3.90808823529	0.0	3.90808823529
140	1	3.12647058824	0.781617647059	3.90808823529
141	1	3.12647058824	0.0	4.68970588235
142	1	3.90808823529	0.781617647059	4.68970588235
143	1	3.90808823529	0.0	5.47132352941
144	1	3.12647058824	0.781617647059	5.47132352941
145	1	3.12647058824	1.56323529412	0.0
146	1	3.90808823529	2.34485294118	0.0
147	1	3.90808823529	1.56323529412	0.781617647059
148	1	3.12647058824	2.34485294118	0.781617647059
149	1	3.12647058824	1.56323529412	1.56323529412
150	1	3.90808823529	2.34485294118	1.56323529412
151	1	3.90808823529	1.56323529412	2.34485294118
152	1	3.12647058824	2.34485294118	2.34485294118
153	1	3.12647058824	1.56323529412	3.12647058824
154	1	3.90808823529	2.34485294118	3.12647058824
155	1	3.90808823529	1.56323529412	3.90808823529
156	1	3.12647058824	2.34485294118	3.90808823529
157	1	3.12647058824	1.56323529412	4.68970588235
158	1	3.90808823529	2.34485294118	4.68970588235
159	1	3.90808823529	1.56323529412	5.47132352941
160	1	3.12647058824	2.34485294118	5.47132352941
161	1	3.12647058824	3.12647058824	0.0
162	1	3.90808823529	3.90808823529	0.0
163	1	3.90808823529	3.12647058824	0.781617647059
164	1	3.12647058824	3.90808823529	0.781617647059
165	1	3.12647058824	3.12647058824	1.56323529412
166	1	3.90808823529	3.90808823529	1.56323529412
167	1	3.90808823529	3.12647058824	2.34485294118
168	1	3.12647058824	3.90808823529	2.34485294118
169	1	3.12647058824	3.12647058824	3.12647058824
170	1	3.90808823529	3.90808823529	3.12647058824
171	1	3.90808823529	3.12647058824	3.90808823529
172	1	3.12647058824	3.90808823529	3.90808823529
173	1	3.12647058824	3.12647058824	4.68970588235
174	1	3.90808823529	3.90808823529	4.68970588235
175	1	3.90808823529	3.12647058824	5.47132352941
176	1	3.12647058824	3.90808823529	5.47132352941
177	1	3.12647058824	4.68970588235	0.0
178	1	3.90808823529	5.47132352941	0.0
179	1	3.90808823529	4.68970588235	0.781617647059
180	1	3.12647058824	5.47132352941	0.781617647059
181	1	3.12647058824	4.68970588235	1.56323529412
182	1	3.90808823529	5.47132352941	1.56323529412
183	1	3.90808823529	4.68970588235	2.34485294118
184	1	3.12647058824	5.47132352941	2.34485294118
185	1	3.12647058824	4.68970588235	3.12647058824
186	1	3.90808823529	5.47132352941	3.12647058824
187	1	3.90808823529	4.68970588235	3.90808823529
188	1	3.12647058824	5.47132352941	3.90808823529
189	1	3.12647058824	4.68970588235	4.68970588235
190	1	3.90808823529	5.47132352941	4.68970588235
191	1	3.90808823529	4.68970588235	5.47132352941
192	1	3.12647058824	5.47132352941	5.47132352941
193	1	4.68970588235	0.0	0.0
194	1	5.47132352941	0.781617647059	0.0
195	1	5.47132352941	0.0	0.781617647059
196	1	4.68970588235	0.781617647059	0.781617647059
197	1	4.68970588235	0.0	1.56323529412
198	1	5.47132352941	0.781617647059	1.56323529412
199	1	5.47132352941	0.0	2.34485294118
200	1	4.68970588235	0.781617647059	2.34485294118
201	1	4.68970588235	0.0	3.12647058824
202	1	5.47132352941	0.781617647059	3.12647058824
203	1	5.47132352941	0.0	3.90808823529
204	1	4.68970588235	0.781617647059	3.90808823529
205	1	4.68970588235	0.0	4.68970588235
206	1	5.47132352941	0.781617647059	4.68970588235
207	1	5.47132352941	0.0	5.47132352941
208	1	4.68970588235	0.781617647059	5.47132352941
209	1	4.68970588235	1.56323529412	0.0
210	1	5.47132352941	2.34485294118	0.0
211	1	5.47132352941	1.56323529412	0.781617647059
212	1	4.68970588235	2.34485294118	0.781617647059
213	1	4.68970588235	1.56323529412	1.56323529412
214	1	5.47132352941	2.34485294118	1.56323529412
215	1	5.47132352941	1.56323529412	2.34485294118
216	1	4.68970588235	2.34485294118	2.34485294118
217	1	4.68970588235	1.56323529412	3.12647058824
218	1	5.47132352941	2.34485294118	3.12647058824
219	1	5.47132352941	1.56323529412	3.90808823529
220	1	4.68970588235	2.34485294118	3.90808823529
221	1	4.68970588235	1.56323529412	4.68970588235
222	1	5.47132352941	2.34485294118	4.68970588235
223	1	5.47132352941	1.56323529412	5.47132352941
224	1	4.68970588235	2.34485294118	5.47132352941
225	1	4.68970588235	3.12647058824	0.0
226	1	5.47132352941	3.90808823529	0.0
227	1	5.47132352941	3.12647058824	0.781617647059
228	1	4.68970588235	3.90808823529	0.781617647059
229	1	4.68970588235	3.12647058824	1.56323529412
230	1	5.47132352941	3.90808823529	1.56323529412
231	1	5.47132352941	3.12647058824	2.34485294118
232	1	4.68970588235	3.90808823529	2.34485294118
233	1	4.68970588235	3.12647058824	3.12647058824
234	1	5.47132352941	3.90808823529	3.12647058824
235	1	5.47132352941	3.12647058824	3.90808823529
236	1	4.68970588235	3.90808823529	3.90808823529
237	1	4.68970588235	3.12647058824	4.68970588235
238	1	5.47132352941	3.90808823529	4.68970588235
239	1	5.47132352941	3.12647058824	5.47132352941
240	1	4.68970588235	3.90808823529	5.47132352941
241	1	4.68970588235	4.68970588235	0.0
242	1	5.47132352941	5.47132352941	0.0
243	1	5.47132352941	4.68970588235	0.781617647059
244	1	4.68970588235	5.47132352941	0.781617647059
245	1	4.68970588235	4.68970588235	1.56323529412
246	1	5.47132352941	5.47132352941	1.56323529412
247	1	5.47132352941	4.68970588235	2.34485294118
248	1	4.68970588235	5.47132352941	2.34485294118
249	1	4.68970588235	4.68970588235	3.12647058824
250	1	5.47132352941	5.47132352941	3.12647058824
251	1	5.47132352941	4.68970588235	3.90808823529
252	1	4.68970588235	5.47132352941	3.90808823529
253	1	4.68970588235	4.68970588235	4.68970588235
254	1	5.47132352941	5.47132352941	4.68970588235
255	1	5.47132352941	4.68970588235	5.47132352941
256	1	4.68970588235	5.47132352941	5.47132352941
