LAMMPS (6 Jun 2013)
log out.lammps.main.0
