LAMMPS (22 Feb 2013)
log out.lammps.main.0
