ERROR: C extension mpiext could not be imported.
Please compile mpiext.c e.g. by running
  python compile_pypar_locally.py
in the pypar directory, or by using
  python setup.py install

WARNING: MPI library could not be initialised - running sequentially
LAMMPS (19 Feb 2013)
Reading data file ...
  orthogonal box = (0 0 0) to (6.25294 6.25294 6.25294)
  1 by 1 by 1 MPI processor grid
  256 atoms
Proc 0 out of 1 procs has <lammps.lammps instance at 0x43267a0>
Setting up run ...
Memory usage per processor = 1.63113 Mbytes
Step Temp E_pair E_mol TotEng Press 
       0   0.16534735   -7.4420341            0   -7.1949819   -1.4753638 
      32  0.085612437   -7.3227355            0   -7.1948185  -0.80257682 
Loop time of 0.0145259 on 1 procs for 32 steps with 256 atoms
Step Temp E_pair E_mol TotEng Press 
      32  0.085612437   -7.3227355            0   -7.1948185  -0.80257682 
      64  0.075259037   -7.3071681            0   -7.1947205  -0.72553661 
Loop time of 0.0143628 on 1 procs for 32 steps with 256 atoms
Step Temp E_pair E_mol TotEng Press 
      64  0.075259037   -7.3071681            0   -7.1947205  -0.72553661 
      96   0.07533067   -7.3072729            0   -7.1947183  -0.72521265 
Loop time of 0.014312 on 1 procs for 32 steps with 256 atoms
Step Temp E_pair E_mol TotEng Press 
      96   0.07533067   -7.3072729            0   -7.1947183  -0.72521265 
     128    0.0805821   -7.3151538            0   -7.1947528  -0.76334191 
Loop time of 0.014343 on 1 procs for 32 steps with 256 atoms
Step Temp E_pair E_mol TotEng Press 
     128    0.0805821   -7.3151538            0   -7.1947528  -0.76334191 
     160  0.087098779   -7.3249153            0   -7.1947775  -0.81741933 
Loop time of 0.0143251 on 1 procs for 32 steps with 256 atoms
Step Temp E_pair E_mol TotEng Press 
     160  0.087098779   -7.3249153            0   -7.1947775  -0.81741933 
     192  0.069926113    -7.299219            0   -7.1947396  -0.68354901 
Loop time of 0.014302 on 1 procs for 32 steps with 256 atoms
Step Temp E_pair E_mol TotEng Press 
     192  0.069926113    -7.299219            0   -7.1947396  -0.68354901 
     224  0.091523806   -7.3315106            0   -7.1947611  -0.86565784 
Loop time of 0.014334 on 1 procs for 32 steps with 256 atoms
Step Temp E_pair E_mol TotEng Press 
     224  0.091523806   -7.3315106            0   -7.1947611  -0.86565784 
     256  0.078716905   -7.3123581            0   -7.1947439  -0.75047076 
Loop time of 0.0143321 on 1 procs for 32 steps with 256 atoms
Step Temp E_pair E_mol TotEng Press 
     256  0.078716905   -7.3123581            0   -7.1947439  -0.75047076 
     288  0.087935178   -7.3261703            0   -7.1947828  -0.82558464 
Loop time of 0.0143561 on 1 procs for 32 steps with 256 atoms
Step Temp E_pair E_mol TotEng Press 
     288  0.087935178   -7.3261703            0   -7.1947828  -0.82558464 
     320  0.092446918   -7.3328944            0   -7.1947657  -0.87254544 
Loop time of 0.0143418 on 1 procs for 32 steps with 256 atoms
Step Temp E_pair E_mol TotEng Press 
     320  0.092446918   -7.3328944            0   -7.1947657  -0.87254544 
     352   0.07512264   -7.3069947            0   -7.1947509  -0.73038866 
Loop time of 0.0143371 on 1 procs for 32 steps with 256 atoms
Step Temp E_pair E_mol TotEng Press 
     352   0.07512264   -7.3069947            0   -7.1947509  -0.73038866 
     384   0.08144663   -7.3164375            0   -7.1947447  -0.77403448 
Loop time of 0.0143569 on 1 procs for 32 steps with 256 atoms
Step Temp E_pair E_mol TotEng Press 
     384   0.08144663   -7.3164375            0   -7.1947447  -0.77403448 
     416  0.074472345   -7.3059984            0   -7.1947262  -0.71458495 
Loop time of 0.0143299 on 1 procs for 32 steps with 256 atoms
Step Temp E_pair E_mol TotEng Press 
     416  0.074472345   -7.3059984            0   -7.1947262  -0.71458495 
     448  0.079255509   -7.3131612            0   -7.1947423  -0.75792085 
Loop time of 0.014339 on 1 procs for 32 steps with 256 atoms
Step Temp E_pair E_mol TotEng Press 
     448  0.079255509   -7.3131612            0   -7.1947423  -0.75792085 
     480  0.084705144   -7.3213212            0   -7.1947598  -0.80328517 
Loop time of 0.0143251 on 1 procs for 32 steps with 256 atoms
Step Temp E_pair E_mol TotEng Press 
     480  0.084705144   -7.3213212            0   -7.1947598  -0.80328517 
     512  0.079834359   -7.3140399            0   -7.1947561  -0.75797396 
Loop time of 0.014322 on 1 procs for 32 steps with 256 atoms
Step Temp E_pair E_mol TotEng Press 
     512  0.079834359   -7.3140399            0   -7.1947561  -0.75797396 
     544  0.088408367   -7.3268567            0   -7.1947622    -0.829675 
Loop time of 0.014313 on 1 procs for 32 steps with 256 atoms
Step Temp E_pair E_mol TotEng Press 
     544  0.088408367   -7.3268567            0   -7.1947622    -0.829675 
     576  0.078777342   -7.3124529            0   -7.1947485  -0.76044701 
Loop time of 0.014338 on 1 procs for 32 steps with 256 atoms
Step Temp E_pair E_mol TotEng Press 
     576  0.078777342   -7.3124529            0   -7.1947485  -0.76044701 
     608  0.083683254   -7.3198133            0   -7.1947787  -0.79226485 
Loop time of 0.0143368 on 1 procs for 32 steps with 256 atoms
Step Temp E_pair E_mol TotEng Press 
     608  0.083683254   -7.3198133            0   -7.1947787  -0.79226485 
     640  0.083663408   -7.3197581            0   -7.1947532  -0.79364844 
Loop time of 0.0143518 on 1 procs for 32 steps with 256 atoms
Step Temp E_pair E_mol TotEng Press 
     640  0.083663408   -7.3197581            0   -7.1947532  -0.79364844 
     672  0.079781763   -7.3139481            0   -7.1947429  -0.76040681 
Loop time of 0.0143342 on 1 procs for 32 steps with 256 atoms
Step Temp E_pair E_mol TotEng Press 
     672  0.079781763   -7.3139481            0   -7.1947429  -0.76040681 
     704   0.07315358   -7.3040231            0   -7.1947214  -0.70855705 
Loop time of 0.0143242 on 1 procs for 32 steps with 256 atoms
Step Temp E_pair E_mol TotEng Press 
     704   0.07315358   -7.3040231            0   -7.1947214  -0.70855705 
     736  0.083029507   -7.3187997            0    -7.194742  -0.78817821 
Loop time of 0.0143518 on 1 procs for 32 steps with 256 atoms
Step Temp E_pair E_mol TotEng Press 
     736  0.083029507   -7.3187997            0    -7.194742  -0.78817821 
     768  0.095022549   -7.3367518            0   -7.1947747  -0.88489863 
Loop time of 0.0143471 on 1 procs for 32 steps with 256 atoms
Step Temp E_pair E_mol TotEng Press 
     768  0.095022549   -7.3367518            0   -7.1947747  -0.88489863 
     800  0.086393392    -7.323857            0   -7.1947732  -0.81573338 
Loop time of 0.0143631 on 1 procs for 32 steps with 256 atoms
Step Temp E_pair E_mol TotEng Press 
     800  0.086393392    -7.323857            0   -7.1947732  -0.81573338 
     832  0.078815068   -7.3125087            0   -7.1947479    -0.753904 
Loop time of 0.0143499 on 1 procs for 32 steps with 256 atoms
Step Temp E_pair E_mol TotEng Press 
     832  0.078815068   -7.3125087            0   -7.1947479    -0.753904 
     864  0.084332282   -7.3207582            0    -7.194754  -0.79876237 
Loop time of 0.0143409 on 1 procs for 32 steps with 256 atoms
Step Temp E_pair E_mol TotEng Press 
     864  0.084332282   -7.3207582            0    -7.194754  -0.79876237 
     896  0.084725558   -7.3213676            0   -7.1947757  -0.79940368 
Loop time of 0.0144329 on 1 procs for 32 steps with 256 atoms
Step Temp E_pair E_mol TotEng Press 
     896  0.084725558   -7.3213676            0   -7.1947757  -0.79940368 
     928  0.085676835   -7.3228039            0   -7.1947906  -0.81363933 
Loop time of 0.0143788 on 1 procs for 32 steps with 256 atoms
Step Temp E_pair E_mol TotEng Press 
     928  0.085676835   -7.3228039            0   -7.1947906  -0.81363933 
     960  0.077797027   -7.3109928            0   -7.1947531   -0.7498422 
Loop time of 0.014354 on 1 procs for 32 steps with 256 atoms
Step Temp E_pair E_mol TotEng Press 
     960  0.077797027   -7.3109928            0   -7.1947531   -0.7498422 
     992  0.081552796   -7.3166228            0   -7.1947714  -0.77880204 
Loop time of 0.0143309 on 1 procs for 32 steps with 256 atoms
Step Temp E_pair E_mol TotEng Press 
     992  0.081552796   -7.3166228            0   -7.1947714  -0.77880204 
    1024  0.086168774   -7.3235361            0   -7.1947879  -0.81905547 
Loop time of 0.014401 on 1 procs for 32 steps with 256 atoms
Step Temp E_pair E_mol TotEng Press 
    1024  0.086168774   -7.3235361            0   -7.1947879  -0.81905547 
    1056  0.089797272   -7.3289824            0   -7.1948126  -0.83657631 
Loop time of 0.0143359 on 1 procs for 32 steps with 256 atoms
Step Temp E_pair E_mol TotEng Press 
    1056  0.089797272   -7.3289824            0   -7.1948126  -0.83657631 
    1088  0.082963287   -7.3187408            0    -7.194782  -0.79228688 
Loop time of 0.0143361 on 1 procs for 32 steps with 256 atoms
Step Temp E_pair E_mol TotEng Press 
    1088  0.082963287   -7.3187408            0    -7.194782  -0.79228688 
    1120  0.082409468   -7.3179027            0   -7.1947714  -0.78462179 
Loop time of 0.0143859 on 1 procs for 32 steps with 256 atoms
Step Temp E_pair E_mol TotEng Press 
    1120  0.082409468   -7.3179027            0   -7.1947714  -0.78462179 
    1152  0.085972622   -7.3232478            0   -7.1947926   -0.8052642 
Loop time of 0.0143321 on 1 procs for 32 steps with 256 atoms
Step Temp E_pair E_mol TotEng Press 
    1152  0.085972622   -7.3232478            0   -7.1947926   -0.8052642 
    1184  0.086402937   -7.3238821            0   -7.1947839  -0.81461527 
Loop time of 0.0143609 on 1 procs for 32 steps with 256 atoms
Step Temp E_pair E_mol TotEng Press 
    1184  0.086402937   -7.3238821            0   -7.1947839  -0.81461527 
    1216  0.084052188   -7.3203625            0   -7.1947768  -0.79843565 
Loop time of 0.0143738 on 1 procs for 32 steps with 256 atoms
Step Temp E_pair E_mol TotEng Press 
    1216  0.084052188   -7.3203625            0   -7.1947768  -0.79843565 
    1248  0.078182044   -7.3115755            0   -7.1947606   -0.7508059 
Loop time of 0.0143371 on 1 procs for 32 steps with 256 atoms
Step Temp E_pair E_mol TotEng Press 
    1248  0.078182044   -7.3115755            0   -7.1947606   -0.7508059 
    1280  0.086048235   -7.3233406            0   -7.1947725   -0.8127797 
Loop time of 0.0143249 on 1 procs for 32 steps with 256 atoms
Step Temp E_pair E_mol TotEng Press 
    1280  0.086048235   -7.3233406            0   -7.1947725   -0.8127797 
    1312  0.079388243   -7.3133904            0   -7.1947732  -0.76075437 
Loop time of 0.014323 on 1 procs for 32 steps with 256 atoms
Step Temp E_pair E_mol TotEng Press 
    1312  0.079388243   -7.3133904            0   -7.1947732  -0.76075437 
    1344  0.085775551   -7.3229342            0   -7.1947735   -0.8138336 
Loop time of 0.014358 on 1 procs for 32 steps with 256 atoms
Step Temp E_pair E_mol TotEng Press 
    1344  0.085775551   -7.3229342            0   -7.1947735   -0.8138336 
    1376  0.077567228   -7.3106509            0   -7.1947546  -0.74475029 
Loop time of 0.014334 on 1 procs for 32 steps with 256 atoms
Step Temp E_pair E_mol TotEng Press 
    1376  0.077567228   -7.3106509            0   -7.1947546  -0.74475029 
    1408  0.081462138    -7.316478            0   -7.1947622   -0.7752756 
Loop time of 0.0143552 on 1 procs for 32 steps with 256 atoms
Step Temp E_pair E_mol TotEng Press 
    1408  0.081462138    -7.316478            0   -7.1947622   -0.7752756 
    1440  0.085459469   -7.3224581            0   -7.1947696  -0.80943495 
Loop time of 0.014338 on 1 procs for 32 steps with 256 atoms
Step Temp E_pair E_mol TotEng Press 
    1440  0.085459469   -7.3224581            0   -7.1947696  -0.80943495 
    1472  0.080643915   -7.3152719            0   -7.1947785  -0.76765972 
Loop time of 0.0143659 on 1 procs for 32 steps with 256 atoms
Step Temp E_pair E_mol TotEng Press 
    1472  0.080643915   -7.3152719            0   -7.1947785  -0.76765972 
    1504  0.083679893   -7.3198133            0   -7.1947837  -0.79504101 
Loop time of 0.014317 on 1 procs for 32 steps with 256 atoms
Step Temp E_pair E_mol TotEng Press 
    1504  0.083679893   -7.3198133            0   -7.1947837  -0.79504101 
    1536  0.080466658    -7.314997            0   -7.1947685  -0.76729969 
Loop time of 0.0143161 on 1 procs for 32 steps with 256 atoms
Step Temp E_pair E_mol TotEng Press 
    1536  0.080466658    -7.314997            0   -7.1947685  -0.76729969 
    1568  0.081187482    -7.316055            0   -7.1947495  -0.77988661 
Loop time of 0.014318 on 1 procs for 32 steps with 256 atoms
Step Temp E_pair E_mol TotEng Press 
    1568  0.081187482    -7.316055            0   -7.1947495  -0.77988661 
    1600  0.085006689     -7.32178            0   -7.1947681  -0.80537119 
Loop time of 0.01436 on 1 procs for 32 steps with 256 atoms
Step Temp E_pair E_mol TotEng Press 
    1600  0.085006689     -7.32178            0   -7.1947681  -0.80537119 
    1632  0.081085073   -7.3159167            0   -7.1947642  -0.77166204 
Loop time of 0.014322 on 1 procs for 32 steps with 256 atoms
Step Temp E_pair E_mol TotEng Press 
    1632  0.081085073   -7.3159167            0   -7.1947642  -0.77166204 
    1664  0.085081457   -7.3218869            0   -7.1947632  -0.80887419 
Loop time of 0.0143311 on 1 procs for 32 steps with 256 atoms
Step Temp E_pair E_mol TotEng Press 
    1664  0.085081457   -7.3218869            0   -7.1947632  -0.80887419 
    1696  0.081634837   -7.3167271            0   -7.1947532  -0.77420729 
Loop time of 0.0143189 on 1 procs for 32 steps with 256 atoms
Step Temp E_pair E_mol TotEng Press 
    1696  0.081634837   -7.3167271            0   -7.1947532  -0.77420729 
    1728  0.083020652   -7.3187921            0   -7.1947475  -0.78337664 
Loop time of 0.014343 on 1 procs for 32 steps with 256 atoms
Step Temp E_pair E_mol TotEng Press 
    1728  0.083020652   -7.3187921            0   -7.1947475  -0.78337664 
    1760  0.082229999   -7.3176087            0   -7.1947456  -0.78352196 
Loop time of 0.0143352 on 1 procs for 32 steps with 256 atoms
Step Temp E_pair E_mol TotEng Press 
    1760  0.082229999   -7.3176087            0   -7.1947456  -0.78352196 
    1792  0.083136261   -7.3189637            0   -7.1947464  -0.79432646 
Loop time of 0.0143371 on 1 procs for 32 steps with 256 atoms
Step Temp E_pair E_mol TotEng Press 
    1792  0.083136261   -7.3189637            0   -7.1947464  -0.79432646 
    1824  0.087948124   -7.3261675            0   -7.1947607  -0.82727354 
Loop time of 0.0143239 on 1 procs for 32 steps with 256 atoms
Step Temp E_pair E_mol TotEng Press 
    1824  0.087948124   -7.3261675            0   -7.1947607  -0.82727354 
    1856  0.077887948   -7.3111105            0    -7.194735  -0.74521663 
Loop time of 0.014333 on 1 procs for 32 steps with 256 atoms
Step Temp E_pair E_mol TotEng Press 
    1856  0.077887948   -7.3111105            0    -7.194735  -0.74521663 
    1888  0.083195114   -7.3190466            0   -7.1947414  -0.79302385 
Loop time of 0.0143511 on 1 procs for 32 steps with 256 atoms
Step Temp E_pair E_mol TotEng Press 
    1888  0.083195114   -7.3190466            0   -7.1947414  -0.79302385 
    1920  0.090403899   -7.3298486            0   -7.1947725  -0.85066296 
Loop time of 0.0143521 on 1 procs for 32 steps with 256 atoms
Step Temp E_pair E_mol TotEng Press 
    1920  0.090403899   -7.3298486            0   -7.1947725  -0.85066296 
    1952   0.08515247   -7.3219918            0    -7.194762  -0.80022957 
Loop time of 0.01437 on 1 procs for 32 steps with 256 atoms
Step Temp E_pair E_mol TotEng Press 
    1952   0.08515247   -7.3219918            0    -7.194762  -0.80022957 
    1984  0.088227787   -7.3265916            0   -7.1947669  -0.83793179 
Loop time of 0.0143619 on 1 procs for 32 steps with 256 atoms
Step Temp E_pair E_mol TotEng Press 
    1984  0.088227787   -7.3265916            0   -7.1947669  -0.83793179 
    2016   0.08026223   -7.3146653            0   -7.1947422  -0.76931731 
Loop time of 0.0143578 on 1 procs for 32 steps with 256 atoms
Step Temp E_pair E_mol TotEng Press 
    2016   0.08026223   -7.3146653            0   -7.1947422  -0.76931731 
    2048  0.085898452    -7.323098            0   -7.1947536  -0.81341753 
Loop time of 0.014334 on 1 procs for 32 steps with 256 atoms
Step Temp E_pair E_mol TotEng Press 
    2048  0.085898452    -7.323098            0   -7.1947536  -0.81341753 
    2080  0.079836454   -7.3140225            0   -7.1947356  -0.76531134 
Loop time of 0.0143509 on 1 procs for 32 steps with 256 atoms
Step Temp E_pair E_mol TotEng Press 
    2080  0.079836454   -7.3140225            0   -7.1947356  -0.76531134 
    2112   0.08321446   -7.3190701            0    -7.194736  -0.79372524 
Loop time of 0.0143239 on 1 procs for 32 steps with 256 atoms
Step Temp E_pair E_mol TotEng Press 
    2112   0.08321446   -7.3190701            0    -7.194736  -0.79372524 
    2144   0.08153116   -7.3165387            0   -7.1947197  -0.78171514 
Loop time of 0.014348 on 1 procs for 32 steps with 256 atoms
Step Temp E_pair E_mol TotEng Press 
    2144   0.08153116   -7.3165387            0   -7.1947197  -0.78171514 
    2176  0.080302298    -7.314719            0   -7.1947361  -0.76205939 
Loop time of 0.014317 on 1 procs for 32 steps with 256 atoms
Step Temp E_pair E_mol TotEng Press 
    2176  0.080302298    -7.314719            0   -7.1947361  -0.76205939 
    2208  0.087271183   -7.3251369            0   -7.1947414  -0.82280446 
Loop time of 0.0143359 on 1 procs for 32 steps with 256 atoms
Step Temp E_pair E_mol TotEng Press 
    2208  0.087271183   -7.3251369            0   -7.1947414  -0.82280446 
    2240  0.079742657   -7.3138589            0   -7.1947122  -0.76660433 
Loop time of 0.014365 on 1 procs for 32 steps with 256 atoms
Step Temp E_pair E_mol TotEng Press 
    2240  0.079742657   -7.3138589            0   -7.1947122  -0.76660433 
    2272  0.083696697   -7.3197913            0   -7.1947367  -0.79454245 
Loop time of 0.0143261 on 1 procs for 32 steps with 256 atoms
Step Temp E_pair E_mol TotEng Press 
    2272  0.083696697   -7.3197913            0   -7.1947367  -0.79454245 
    2304  0.079328414   -7.3132606            0   -7.1947328  -0.75797548 
Loop time of 0.0143259 on 1 procs for 32 steps with 256 atoms
Step Temp E_pair E_mol TotEng Press 
    2304  0.079328414   -7.3132606            0   -7.1947328  -0.75797548 
    2336  0.084743317    -7.321358            0   -7.1947395  -0.80063543 
Loop time of 0.014349 on 1 procs for 32 steps with 256 atoms
Step Temp E_pair E_mol TotEng Press 
    2336  0.084743317    -7.321358            0   -7.1947395  -0.80063543 
    2368  0.085935739   -7.3231424            0   -7.1947423  -0.81172112 
Loop time of 0.014344 on 1 procs for 32 steps with 256 atoms
Step Temp E_pair E_mol TotEng Press 
    2368  0.085935739   -7.3231424            0   -7.1947423  -0.81172112 
    2400  0.079928812   -7.3141626            0   -7.1947377  -0.76141111 
Loop time of 0.0143459 on 1 procs for 32 steps with 256 atoms
Step Temp E_pair E_mol TotEng Press 
    2400  0.079928812   -7.3141626            0   -7.1947377  -0.76141111 
    2432   0.08391338   -7.3201361            0   -7.1947577  -0.79433758 
Loop time of 0.0143292 on 1 procs for 32 steps with 256 atoms
Step Temp E_pair E_mol TotEng Press 
    2432   0.08391338   -7.3201361            0   -7.1947577  -0.79433758 
    2464  0.084021644    -7.320291            0   -7.1947508  -0.79887551 
Loop time of 0.0143712 on 1 procs for 32 steps with 256 atoms
Step Temp E_pair E_mol TotEng Press 
    2464  0.084021644    -7.320291            0   -7.1947508  -0.79887551 
    2496   0.08295228   -7.3186958            0   -7.1947534  -0.78389165 
Loop time of 0.0143111 on 1 procs for 32 steps with 256 atoms
Step Temp E_pair E_mol TotEng Press 
    2496   0.08295228   -7.3186958            0   -7.1947534  -0.78389165 
    2528  0.080590537   -7.3151659            0   -7.1947523  -0.76468877 
Loop time of 0.0143218 on 1 procs for 32 steps with 256 atoms
Step Temp E_pair E_mol TotEng Press 
    2528  0.080590537   -7.3151659            0   -7.1947523  -0.76468877 
    2560  0.078787184    -7.312473            0   -7.1947539  -0.75361535 
Loop time of 0.0143199 on 1 procs for 32 steps with 256 atoms
Step Temp E_pair E_mol TotEng Press 
    2560  0.078787184    -7.312473            0   -7.1947539  -0.75361535 
    2592  0.084616931   -7.3211913            0   -7.1947617  -0.80723215 
Loop time of 0.014353 on 1 procs for 32 steps with 256 atoms
Step Temp E_pair E_mol TotEng Press 
    2592  0.084616931   -7.3211913            0   -7.1947617  -0.80723215 
    2624  0.082530621   -7.3180716            0   -7.1947593  -0.78218407 
Loop time of 0.014343 on 1 procs for 32 steps with 256 atoms
Step Temp E_pair E_mol TotEng Press 
    2624  0.082530621   -7.3180716            0   -7.1947593  -0.78218407 
    2656  0.085008781   -7.3217938            0   -7.1947788  -0.80450311 
Loop time of 0.014327 on 1 procs for 32 steps with 256 atoms
Step Temp E_pair E_mol TotEng Press 
    2656  0.085008781   -7.3217938            0   -7.1947788  -0.80450311 
    2688  0.084843439   -7.3215236            0   -7.1947556  -0.80527478 
Loop time of 0.0143471 on 1 procs for 32 steps with 256 atoms
Step Temp E_pair E_mol TotEng Press 
    2688  0.084843439   -7.3215236            0   -7.1947556  -0.80527478 
    2720   0.08568709   -7.3228066            0   -7.1947781  -0.80583222 
Loop time of 0.014369 on 1 procs for 32 steps with 256 atoms
Step Temp E_pair E_mol TotEng Press 
    2720   0.08568709   -7.3228066            0   -7.1947781  -0.80583222 
    2752  0.083682532   -7.3198024            0    -7.194769  -0.79349518 
Loop time of 0.0143158 on 1 procs for 32 steps with 256 atoms
Step Temp E_pair E_mol TotEng Press 
    2752  0.083682532   -7.3198024            0    -7.194769  -0.79349518 
    2784  0.081851756    -7.317056            0   -7.1947579  -0.77598221 
Loop time of 0.014333 on 1 procs for 32 steps with 256 atoms
Step Temp E_pair E_mol TotEng Press 
    2784  0.081851756    -7.317056            0   -7.1947579  -0.77598221 
    2816  0.077789769   -7.3109762            0   -7.1947473  -0.74981298 
Loop time of 0.0143509 on 1 procs for 32 steps with 256 atoms
Step Temp E_pair E_mol TotEng Press 
    2816  0.077789769   -7.3109762            0   -7.1947473  -0.74981298 
    2848  0.079274147    -7.313191            0   -7.1947443  -0.76106741 
Loop time of 0.0143609 on 1 procs for 32 steps with 256 atoms
Step Temp E_pair E_mol TotEng Press 
    2848  0.079274147    -7.313191            0   -7.1947443  -0.76106741 
    2880  0.083639742   -7.3197536            0   -7.1947841  -0.79035035 
Loop time of 0.0143461 on 1 procs for 32 steps with 256 atoms
Step Temp E_pair E_mol TotEng Press 
    2880  0.083639742   -7.3197536            0   -7.1947841  -0.79035035 
    2912  0.082232953   -7.3176388            0   -7.1947712  -0.78343009 
Loop time of 0.0143239 on 1 procs for 32 steps with 256 atoms
Step Temp E_pair E_mol TotEng Press 
    2912  0.082232953   -7.3176388            0   -7.1947712  -0.78343009 
    2944  0.086985921   -7.3247504            0   -7.1947812  -0.82102235 
Loop time of 0.014349 on 1 procs for 32 steps with 256 atoms
Step Temp E_pair E_mol TotEng Press 
    2944  0.086985921   -7.3247504            0   -7.1947812  -0.82102235 
    2976  0.084331492   -7.3207883            0   -7.1947852  -0.79934974 
Loop time of 0.0143301 on 1 procs for 32 steps with 256 atoms
Step Temp E_pair E_mol TotEng Press 
    2976  0.084331492   -7.3207883            0   -7.1947852  -0.79934974 
    3008  0.088778889   -7.3274295            0   -7.1947813  -0.83413389 
Loop time of 0.0143092 on 1 procs for 32 steps with 256 atoms
Step Temp E_pair E_mol TotEng Press 
    3008  0.088778889   -7.3274295            0   -7.1947813  -0.83413389 
    3040  0.081816393   -7.3170057            0   -7.1947605    -0.779268 
Loop time of 0.014344 on 1 procs for 32 steps with 256 atoms
Step Temp E_pair E_mol TotEng Press 
    3040  0.081816393   -7.3170057            0   -7.1947605    -0.779268 
    3072  0.082887895   -7.3185996            0   -7.1947535   -0.7898557 
Loop time of 0.0143762 on 1 procs for 32 steps with 256 atoms
Step Temp E_pair E_mol TotEng Press 
    3072  0.082887895   -7.3185996            0   -7.1947535   -0.7898557 
    3104  0.085355787   -7.3223073            0   -7.1947737   -0.8054208 
Loop time of 0.0143321 on 1 procs for 32 steps with 256 atoms
Step Temp E_pair E_mol TotEng Press 
    3104  0.085355787   -7.3223073            0   -7.1947737   -0.8054208 
    3136  0.086343672   -7.3237851            0   -7.1947755  -0.81592046 
Loop time of 0.0143459 on 1 procs for 32 steps with 256 atoms
Step Temp E_pair E_mol TotEng Press 
    3136  0.086343672   -7.3237851            0   -7.1947755  -0.81592046 
    3168   0.08725026   -7.3251294            0   -7.1947652  -0.82630836 
Loop time of 0.0143209 on 1 procs for 32 steps with 256 atoms
Step Temp E_pair E_mol TotEng Press 
    3168   0.08725026   -7.3251294            0   -7.1947652  -0.82630836 
    3200  0.083383837   -7.3193526            0   -7.1947654  -0.79039076 
Loop time of 0.0143149 on 1 procs for 32 steps with 256 atoms
Step Temp E_pair E_mol TotEng Press 
    3200  0.083383837   -7.3193526            0   -7.1947654  -0.79039076 
    3232  0.082512046   -7.3180271            0   -7.1947425  -0.78011224 
Loop time of 0.014334 on 1 procs for 32 steps with 256 atoms
Step Temp E_pair E_mol TotEng Press 
    3232  0.082512046   -7.3180271            0   -7.1947425  -0.78011224 
    3264  0.085125793   -7.3219478            0   -7.1947579   -0.8079001 
Loop time of 0.014329 on 1 procs for 32 steps with 256 atoms
Step Temp E_pair E_mol TotEng Press 
    3264  0.085125793   -7.3219478            0   -7.1947579   -0.8079001 
    3296  0.082316462   -7.3177389            0   -7.1947465  -0.78069177 
Loop time of 0.014344 on 1 procs for 32 steps with 256 atoms
Step Temp E_pair E_mol TotEng Press 
    3296  0.082316462   -7.3177389            0   -7.1947465  -0.78069177 
    3328  0.084010373     -7.32026            0   -7.1947367  -0.79804674 
Loop time of 0.014338 on 1 procs for 32 steps with 256 atoms
Step Temp E_pair E_mol TotEng Press 
    3328  0.084010373     -7.32026            0   -7.1947367  -0.79804674 
    3360   0.07900682   -7.3127625            0   -7.1947152  -0.75724885 
Loop time of 0.0143628 on 1 procs for 32 steps with 256 atoms
Step Temp E_pair E_mol TotEng Press 
    3360   0.07900682   -7.3127625            0   -7.1947152  -0.75724885 
    3392  0.082079665   -7.3173675            0   -7.1947289  -0.78073443 
Loop time of 0.0143292 on 1 procs for 32 steps with 256 atoms
Step Temp E_pair E_mol TotEng Press 
    3392  0.082079665   -7.3173675            0   -7.1947289  -0.78073443 
    3424  0.081481211    -7.316479            0   -7.1947346  -0.77227117 
Loop time of 0.014322 on 1 procs for 32 steps with 256 atoms
Step Temp E_pair E_mol TotEng Press 
    3424  0.081481211    -7.316479            0   -7.1947346  -0.77227117 
    3456  0.084929276   -7.3216339            0   -7.1947376   -0.8013076 
Loop time of 0.0143261 on 1 procs for 32 steps with 256 atoms
Step Temp E_pair E_mol TotEng Press 
    3456  0.084929276   -7.3216339            0   -7.1947376   -0.8013076 
    3488  0.088417517   -7.3268514            0   -7.1947432  -0.82847487 
Loop time of 0.014318 on 1 procs for 32 steps with 256 atoms
Step Temp E_pair E_mol TotEng Press 
    3488  0.088417517   -7.3268514            0   -7.1947432  -0.82847487 
    3520  0.077715838   -7.3108335            0   -7.1947151  -0.74475461 
Loop time of 0.0143991 on 1 procs for 32 steps with 256 atoms
Step Temp E_pair E_mol TotEng Press 
    3520  0.077715838   -7.3108335            0   -7.1947151  -0.74475461 
    3552  0.077344858   -7.3102729            0   -7.1947088  -0.73623216 
Loop time of 0.0143259 on 1 procs for 32 steps with 256 atoms
Step Temp E_pair E_mol TotEng Press 
    3552  0.077344858   -7.3102729            0   -7.1947088  -0.73623216 
    3584  0.080026278   -7.3142927            0   -7.1947222  -0.76672234 
Loop time of 0.014323 on 1 procs for 32 steps with 256 atoms
Step Temp E_pair E_mol TotEng Press 
    3584  0.080026278   -7.3142927            0   -7.1947222  -0.76672234 
    3616  0.082655863   -7.3182437            0   -7.1947443  -0.78451941 
Loop time of 0.014334 on 1 procs for 32 steps with 256 atoms
Step Temp E_pair E_mol TotEng Press 
    3616  0.082655863   -7.3182437            0   -7.1947443  -0.78451941 
    3648  0.082812546   -7.3184682            0   -7.1947346  -0.78504193 
Loop time of 0.0143239 on 1 procs for 32 steps with 256 atoms
Step Temp E_pair E_mol TotEng Press 
    3648  0.082812546   -7.3184682            0   -7.1947346  -0.78504193 
    3680  0.081457789    -7.316449            0   -7.1947396  -0.77275458 
Loop time of 0.0143101 on 1 procs for 32 steps with 256 atoms
Step Temp E_pair E_mol TotEng Press 
    3680  0.081457789    -7.316449            0   -7.1947396  -0.77275458 
    3712  0.084775079   -7.3214033            0   -7.1947374   -0.8055302 
Loop time of 0.0143831 on 1 procs for 32 steps with 256 atoms
Step Temp E_pair E_mol TotEng Press 
    3712  0.084775079   -7.3214033            0   -7.1947374   -0.8055302 
    3744  0.081754108   -7.3168833            0   -7.1947312  -0.77615543 
Loop time of 0.0143411 on 1 procs for 32 steps with 256 atoms
Step Temp E_pair E_mol TotEng Press 
    3744  0.081754108   -7.3168833            0   -7.1947312  -0.77615543 
    3776  0.083294912   -7.3192025            0   -7.1947482  -0.78217639 
Loop time of 0.014327 on 1 procs for 32 steps with 256 atoms
Step Temp E_pair E_mol TotEng Press 
    3776  0.083294912   -7.3192025            0   -7.1947482  -0.78217639 
    3808  0.083062808   -7.3188482            0   -7.1947407  -0.78907529 
Loop time of 0.0143309 on 1 procs for 32 steps with 256 atoms
Step Temp E_pair E_mol TotEng Press 
    3808  0.083062808   -7.3188482            0   -7.1947407  -0.78907529 
    3840  0.085223291   -7.3220866            0    -7.194751  -0.80908159 
Loop time of 0.014354 on 1 procs for 32 steps with 256 atoms
Step Temp E_pair E_mol TotEng Press 
    3840  0.085223291   -7.3220866            0    -7.194751  -0.80908159 
    3872  0.080422222   -7.3149059            0   -7.1947438  -0.76563147 
Loop time of 0.0143571 on 1 procs for 32 steps with 256 atoms
Step Temp E_pair E_mol TotEng Press 
    3872  0.080422222   -7.3149059            0   -7.1947438  -0.76563147 
    3904  0.083461967    -7.319455            0    -7.194751  -0.78347622 
Loop time of 0.0143099 on 1 procs for 32 steps with 256 atoms
Step Temp E_pair E_mol TotEng Press 
    3904  0.083461967    -7.319455            0    -7.194751  -0.78347622 
    3936  0.090428085   -7.3298812            0    -7.194769  -0.84812887 
Loop time of 0.0143318 on 1 procs for 32 steps with 256 atoms
Step Temp E_pair E_mol TotEng Press 
    3936  0.090428085   -7.3298812            0    -7.194769  -0.84812887 
    3968   0.08661828   -7.3241922            0   -7.1947723  -0.82250006 
Loop time of 0.0143521 on 1 procs for 32 steps with 256 atoms
Step Temp E_pair E_mol TotEng Press 
    3968   0.08661828   -7.3241922            0   -7.1947723  -0.82250006 
    4000  0.085684006    -7.322807            0   -7.1947831  -0.80345603 
Loop time of 0.014308 on 1 procs for 32 steps with 256 atoms
Step Temp E_pair E_mol TotEng Press 
    4000  0.085684006    -7.322807            0   -7.1947831  -0.80345603 
    4032   0.08855944   -7.3270916            0   -7.1947713  -0.83053978 
Loop time of 0.014338 on 1 procs for 32 steps with 256 atoms
Step Temp E_pair E_mol TotEng Press 
    4032   0.08855944   -7.3270916            0   -7.1947713  -0.83053978 
    4064   0.08187887   -7.3170945            0    -7.194756  -0.77743386 
Loop time of 0.014364 on 1 procs for 32 steps with 256 atoms
Step Temp E_pair E_mol TotEng Press 
    4064   0.08187887   -7.3170945            0    -7.194756  -0.77743386 
    4096  0.080166235   -7.3145157            0    -7.194736  -0.76554217 
Loop time of 0.014318 on 1 procs for 32 steps with 256 atoms
Step Temp E_pair E_mol TotEng Press 
    4096  0.080166235   -7.3145157            0    -7.194736  -0.76554217 
    4128   0.07887478   -7.3125868            0   -7.1947368  -0.74927859 
Loop time of 0.014359 on 1 procs for 32 steps with 256 atoms
Step Temp E_pair E_mol TotEng Press 
    4128   0.07887478   -7.3125868            0   -7.1947368  -0.74927859 
    4160  0.083299142   -7.3191913            0   -7.1947306  -0.79354522 
Loop time of 0.0143719 on 1 procs for 32 steps with 256 atoms
Step Temp E_pair E_mol TotEng Press 
    4160  0.083299142   -7.3191913            0   -7.1947306  -0.79354522 
    4192  0.089024967   -7.3277743            0   -7.1947585  -0.83848645 
Loop time of 0.0143452 on 1 procs for 32 steps with 256 atoms
Step Temp E_pair E_mol TotEng Press 
    4192  0.089024967   -7.3277743            0   -7.1947585  -0.83848645 
    4224  0.085667403    -7.322742            0   -7.1947429  -0.80246098 
Loop time of 0.0143368 on 1 procs for 32 steps with 256 atoms
Step Temp E_pair E_mol TotEng Press 
    4224  0.085667403    -7.322742            0   -7.1947429  -0.80246098 
    4256   0.08601718   -7.3232631            0   -7.1947413  -0.80812933 
Loop time of 0.0143502 on 1 procs for 32 steps with 256 atoms
Step Temp E_pair E_mol TotEng Press 
    4256   0.08601718   -7.3232631            0   -7.1947413  -0.80812933 
    4288  0.083221097   -7.3190815            0   -7.1947375  -0.79360706 
Loop time of 0.0143211 on 1 procs for 32 steps with 256 atoms
Step Temp E_pair E_mol TotEng Press 
    4288  0.083221097   -7.3190815            0   -7.1947375  -0.79360706 
    4320  0.082049298   -7.3173248            0   -7.1947316  -0.77755737 
Loop time of 0.0143511 on 1 procs for 32 steps with 256 atoms
Step Temp E_pair E_mol TotEng Press 
    4320  0.082049298   -7.3173248            0   -7.1947316  -0.77755737 
    4352  0.078320133   -7.3117425            0   -7.1947212  -0.73951776 
Loop time of 0.0143359 on 1 procs for 32 steps with 256 atoms
Step Temp E_pair E_mol TotEng Press 
    4352  0.078320133   -7.3117425            0   -7.1947212  -0.73951776 
    4384  0.087396598   -7.3253135            0   -7.1947307  -0.81889271 
Loop time of 0.014329 on 1 procs for 32 steps with 256 atoms
Step Temp E_pair E_mol TotEng Press 
    4384  0.087396598   -7.3253135            0   -7.1947307  -0.81889271 
    4416  0.081233733   -7.3160866            0    -7.194712  -0.77140897 
Loop time of 0.0143211 on 1 procs for 32 steps with 256 atoms
Step Temp E_pair E_mol TotEng Press 
    4416  0.081233733   -7.3160866            0    -7.194712  -0.77140897 
    4448  0.083748098   -7.3198504            0    -7.194719  -0.78714153 
Loop time of 0.0143468 on 1 procs for 32 steps with 256 atoms
Step Temp E_pair E_mol TotEng Press 
    4448  0.083748098   -7.3198504            0    -7.194719  -0.78714153 
    4480  0.084299965   -7.3206796            0   -7.1947236  -0.78862467 
Loop time of 0.0143161 on 1 procs for 32 steps with 256 atoms
Step Temp E_pair E_mol TotEng Press 
    4480  0.084299965   -7.3206796            0   -7.1947236  -0.78862467 
    4512  0.083942401   -7.3201207            0   -7.1946989  -0.79028721 
Loop time of 0.0143371 on 1 procs for 32 steps with 256 atoms
Step Temp E_pair E_mol TotEng Press 
    4512  0.083942401   -7.3201207            0   -7.1946989  -0.79028721 
    4544  0.081347458   -7.3162395            0    -7.194695  -0.76813016 
Loop time of 0.0143468 on 1 procs for 32 steps with 256 atoms
Step Temp E_pair E_mol TotEng Press 
    4544  0.081347458   -7.3162395            0    -7.194695  -0.76813016 
    4576  0.076831957   -7.3094827            0    -7.194685  -0.73382256 
Loop time of 0.0143111 on 1 procs for 32 steps with 256 atoms
Step Temp E_pair E_mol TotEng Press 
    4576  0.076831957   -7.3094827            0    -7.194685  -0.73382256 
    4608  0.079051829   -7.3127993            0   -7.1946847  -0.75592634 
Loop time of 0.014308 on 1 procs for 32 steps with 256 atoms
Step Temp E_pair E_mol TotEng Press 
    4608  0.079051829   -7.3127993            0   -7.1946847  -0.75592634 
    4640  0.082079275   -7.3173432            0   -7.1947052  -0.77923934 
Loop time of 0.014348 on 1 procs for 32 steps with 256 atoms
Step Temp E_pair E_mol TotEng Press 
    4640  0.082079275   -7.3173432            0   -7.1947052  -0.77923934 
    4672  0.083732093   -7.3198109            0   -7.1947034  -0.78775691 
Loop time of 0.014313 on 1 procs for 32 steps with 256 atoms
Step Temp E_pair E_mol TotEng Press 
    4672  0.083732093   -7.3198109            0   -7.1947034  -0.78775691 
    4704   0.08110272   -7.3158991            0   -7.1947202  -0.77136037 
Loop time of 0.0143259 on 1 procs for 32 steps with 256 atoms
Step Temp E_pair E_mol TotEng Press 
    4704   0.08110272   -7.3158991            0   -7.1947202  -0.77136037 
    4736  0.085939051   -7.3231157            0   -7.1947107  -0.81163082 
Loop time of 0.0143261 on 1 procs for 32 steps with 256 atoms
Step Temp E_pair E_mol TotEng Press 
    4736  0.085939051   -7.3231157            0   -7.1947107  -0.81163082 
    4768  0.086729219    -7.324306            0   -7.1947203  -0.81705669 
Loop time of 0.0144 on 1 procs for 32 steps with 256 atoms
Step Temp E_pair E_mol TotEng Press 
    4768  0.086729219    -7.324306            0   -7.1947203  -0.81705669 
    4800  0.081101354   -7.3158575            0   -7.1946806  -0.76537491 
Loop time of 0.0143039 on 1 procs for 32 steps with 256 atoms
Step Temp E_pair E_mol TotEng Press 
    4800  0.081101354   -7.3158575            0   -7.1946806  -0.76537491 
    4832   0.08554273   -7.3225215            0   -7.1947087   -0.8059289 
Loop time of 0.0143371 on 1 procs for 32 steps with 256 atoms
Step Temp E_pair E_mol TotEng Press 
    4832   0.08554273   -7.3225215            0   -7.1947087   -0.8059289 
    4864    0.0864309   -7.3238303            0   -7.1946904  -0.81754819 
Loop time of 0.014317 on 1 procs for 32 steps with 256 atoms
Step Temp E_pair E_mol TotEng Press 
    4864    0.0864309   -7.3238303            0   -7.1946904  -0.81754819 
    4896  0.087338776   -7.3252099            0   -7.1947135  -0.81975652 
Loop time of 0.014329 on 1 procs for 32 steps with 256 atoms
Step Temp E_pair E_mol TotEng Press 
    4896  0.087338776   -7.3252099            0   -7.1947135  -0.81975652 
    4928  0.084505564   -7.3209509            0   -7.1946877  -0.78969605 
Loop time of 0.0143471 on 1 procs for 32 steps with 256 atoms
Step Temp E_pair E_mol TotEng Press 
    4928  0.084505564   -7.3209509            0   -7.1946877  -0.78969605 
    4960  0.079815334   -7.3139251            0   -7.1946698  -0.76024825 
Loop time of 0.014343 on 1 procs for 32 steps with 256 atoms
Step Temp E_pair E_mol TotEng Press 
    4960  0.079815334   -7.3139251            0   -7.1946698  -0.76024825 
    4992  0.083434308   -7.3193496            0    -7.194687  -0.79076177 
Loop time of 0.0143569 on 1 procs for 32 steps with 256 atoms
Step Temp E_pair E_mol TotEng Press 
    4992  0.083434308   -7.3193496            0    -7.194687  -0.79076177 
    5024  0.083874937   -7.3200121            0   -7.1946912  -0.78632171 
Loop time of 0.0144498 on 1 procs for 32 steps with 256 atoms
Step Temp E_pair E_mol TotEng Press 
    5024  0.083874937   -7.3200121            0   -7.1946912  -0.78632171 
    5056  0.084705776   -7.3212575            0   -7.1946952  -0.79519668 
Loop time of 0.0143089 on 1 procs for 32 steps with 256 atoms
Step Temp E_pair E_mol TotEng Press 
    5056  0.084705776   -7.3212575            0   -7.1946952  -0.79519668 
    5088  0.087053609   -7.3247586            0   -7.1946883   -0.8240468 
Loop time of 0.014323 on 1 procs for 32 steps with 256 atoms
Step Temp E_pair E_mol TotEng Press 
    5088  0.087053609   -7.3247586            0   -7.1946883   -0.8240468 
    5120  0.082300581   -7.3176623            0   -7.1946936  -0.77961823 
Loop time of 0.0143521 on 1 procs for 32 steps with 256 atoms
Step Temp E_pair E_mol TotEng Press 
    5120  0.082300581   -7.3176623            0   -7.1946936  -0.77961823 
    5152  0.085698354   -7.3227399            0   -7.1946945   -0.8053699 
Loop time of 0.014339 on 1 procs for 32 steps with 256 atoms
Step Temp E_pair E_mol TotEng Press 
    5152  0.085698354   -7.3227399            0   -7.1946945   -0.8053699 
    5184  0.086401688   -7.3237949            0   -7.1946986  -0.81709551 
Loop time of 0.014426 on 1 procs for 32 steps with 256 atoms
Step Temp E_pair E_mol TotEng Press 
    5184  0.086401688   -7.3237949            0   -7.1946986  -0.81709551 
    5216  0.085420561   -7.3223229            0   -7.1946925  -0.80550033 
Loop time of 0.0143402 on 1 procs for 32 steps with 256 atoms
Step Temp E_pair E_mol TotEng Press 
    5216  0.085420561   -7.3223229            0   -7.1946925  -0.80550033 
    5248  0.079397126   -7.3133017            0   -7.1946712  -0.75183143 
Loop time of 0.014318 on 1 procs for 32 steps with 256 atoms
Step Temp E_pair E_mol TotEng Press 
    5248  0.079397126   -7.3133017            0   -7.1946712  -0.75183143 
    5280  0.081766327   -7.3168364            0    -7.194666  -0.77313246 
Loop time of 0.014312 on 1 procs for 32 steps with 256 atoms
Step Temp E_pair E_mol TotEng Press 
    5280  0.081766327   -7.3168364            0    -7.194666  -0.77313246 
    5312    0.0849731   -7.3216431            0   -7.1946813  -0.80471538 
Loop time of 0.0143201 on 1 procs for 32 steps with 256 atoms
Step Temp E_pair E_mol TotEng Press 
    5312    0.0849731   -7.3216431            0   -7.1946813  -0.80471538 
    5344  0.079776975   -7.3138689            0   -7.1946709  -0.76223126 
Loop time of 0.0143151 on 1 procs for 32 steps with 256 atoms
Step Temp E_pair E_mol TotEng Press 
    5344  0.079776975   -7.3138689            0   -7.1946709  -0.76223126 
    5376  0.082472499   -7.3179027            0   -7.1946772  -0.77429606 
Loop time of 0.0143781 on 1 procs for 32 steps with 256 atoms
Step Temp E_pair E_mol TotEng Press 
    5376  0.082472499   -7.3179027            0   -7.1946772  -0.77429606 
    5408   0.08876577   -7.3273223            0   -7.1946937  -0.83732135 
Loop time of 0.0152509 on 1 procs for 32 steps with 256 atoms
Step Temp E_pair E_mol TotEng Press 
    5408   0.08876577   -7.3273223            0   -7.1946937  -0.83732135 
    5440  0.085297286   -7.3221244            0   -7.1946783  -0.80698311 
Loop time of 0.0143471 on 1 procs for 32 steps with 256 atoms
Step Temp E_pair E_mol TotEng Press 
    5440  0.085297286   -7.3221244            0   -7.1946783  -0.80698311 
    5472  0.084530991   -7.3209868            0   -7.1946856  -0.79393143 
Loop time of 0.014297 on 1 procs for 32 steps with 256 atoms
Step Temp E_pair E_mol TotEng Press 
    5472  0.084530991   -7.3209868            0   -7.1946856  -0.79393143 
    5504  0.082971527   -7.3186602            0    -7.194689  -0.78821789 
Loop time of 0.0143051 on 1 procs for 32 steps with 256 atoms
Step Temp E_pair E_mol TotEng Press 
    5504  0.082971527   -7.3186602            0    -7.194689  -0.78821789 
    5536  0.088147668   -7.3263955            0   -7.1946904  -0.83507854 
Loop time of 0.014354 on 1 procs for 32 steps with 256 atoms
Step Temp E_pair E_mol TotEng Press 
    5536  0.088147668   -7.3263955            0   -7.1946904  -0.83507854 
    5568  0.081413382   -7.3163323            0   -7.1946893  -0.77357182 
Loop time of 0.014329 on 1 procs for 32 steps with 256 atoms
Step Temp E_pair E_mol TotEng Press 
    5568  0.081413382   -7.3163323            0   -7.1946893  -0.77357182 
    5600  0.078642177   -7.3121902            0   -7.1946877  -0.74949619 
Loop time of 0.0144279 on 1 procs for 32 steps with 256 atoms
Step Temp E_pair E_mol TotEng Press 
    5600  0.078642177   -7.3121902            0   -7.1946877  -0.74949619 
    5632  0.083650276   -7.3196949            0   -7.1947097   -0.7959897 
Loop time of 0.0143311 on 1 procs for 32 steps with 256 atoms
Step Temp E_pair E_mol TotEng Press 
    5632  0.083650276   -7.3196949            0   -7.1947097   -0.7959897 
    5664  0.085476908   -7.3224166            0   -7.1947021  -0.81240238 
Loop time of 0.0143249 on 1 procs for 32 steps with 256 atoms
Step Temp E_pair E_mol TotEng Press 
    5664  0.085476908   -7.3224166            0   -7.1947021  -0.81240238 
    5696  0.085625709   -7.3226443            0   -7.1947075  -0.80111527 
Loop time of 0.0142949 on 1 procs for 32 steps with 256 atoms
Step Temp E_pair E_mol TotEng Press 
    5696  0.085625709   -7.3226443            0   -7.1947075  -0.80111527 
    5728  0.084429666   -7.3208417            0   -7.1946919  -0.79445711 
Loop time of 0.014292 on 1 procs for 32 steps with 256 atoms
Step Temp E_pair E_mol TotEng Press 
    5728  0.084429666   -7.3208417            0   -7.1946919  -0.79445711 
    5760  0.083824087   -7.3199376            0   -7.1946926  -0.80315061 
Loop time of 0.0142941 on 1 procs for 32 steps with 256 atoms
Step Temp E_pair E_mol TotEng Press 
    5760  0.083824087   -7.3199376            0   -7.1946926  -0.80315061 
    5792   0.08822349   -7.3265215            0   -7.1947032  -0.82920461 
Loop time of 0.014395 on 1 procs for 32 steps with 256 atoms
Step Temp E_pair E_mol TotEng Press 
    5792   0.08822349   -7.3265215            0   -7.1947032  -0.82920461 
    5824  0.080016971   -7.3142544            0   -7.1946978  -0.76126351 
Loop time of 0.0143158 on 1 procs for 32 steps with 256 atoms
Step Temp E_pair E_mol TotEng Press 
    5824  0.080016971   -7.3142544            0   -7.1946978  -0.76126351 
    5856  0.081763412   -7.3168557            0   -7.1946896  -0.78009996 
Loop time of 0.014307 on 1 procs for 32 steps with 256 atoms
Step Temp E_pair E_mol TotEng Press 
    5856  0.081763412   -7.3168557            0   -7.1946896  -0.78009996 
    5888  0.080616013   -7.3151274            0   -7.1946758  -0.77280789 
Loop time of 0.014322 on 1 procs for 32 steps with 256 atoms
Step Temp E_pair E_mol TotEng Press 
    5888  0.080616013   -7.3151274            0   -7.1946758  -0.77280789 
    5920  0.080892648   -7.3155566            0   -7.1946916    -0.765048 
Loop time of 0.014353 on 1 procs for 32 steps with 256 atoms
Step Temp E_pair E_mol TotEng Press 
    5920  0.080892648   -7.3155566            0   -7.1946916    -0.765048 
    5952  0.090027058   -7.3292358            0   -7.1947227  -0.84289755 
Loop time of 0.0143182 on 1 procs for 32 steps with 256 atoms
Step Temp E_pair E_mol TotEng Press 
    5952  0.090027058   -7.3292358            0   -7.1947227  -0.84289755 
    5984  0.085569869   -7.3225572            0   -7.1947038  -0.81168116 
Loop time of 0.0143452 on 1 procs for 32 steps with 256 atoms
Step Temp E_pair E_mol TotEng Press 
    5984  0.085569869   -7.3225572            0   -7.1947038  -0.81168116 
    6016  0.088199513   -7.3264843            0   -7.1947018  -0.82249977 
Loop time of 0.014395 on 1 procs for 32 steps with 256 atoms
Step Temp E_pair E_mol TotEng Press 
    6016  0.088199513   -7.3264843            0   -7.1947018  -0.82249977 
    6048  0.078003233   -7.3112246            0   -7.1946768  -0.73798675 
Loop time of 0.014312 on 1 procs for 32 steps with 256 atoms
Step Temp E_pair E_mol TotEng Press 
    6048  0.078003233   -7.3112246            0   -7.1946768  -0.73798675 
    6080  0.082956468   -7.3186338            0   -7.1946851  -0.78152718 
Loop time of 0.0143261 on 1 procs for 32 steps with 256 atoms
Step Temp E_pair E_mol TotEng Press 
    6080  0.082956468   -7.3186338            0   -7.1946851  -0.78152718 
    6112  0.083702154   -7.3197572            0   -7.1946945  -0.79731783 
Loop time of 0.0143239 on 1 procs for 32 steps with 256 atoms
Step Temp E_pair E_mol TotEng Press 
    6112  0.083702154   -7.3197572            0   -7.1946945  -0.79731783 
    6144  0.080972272   -7.3156793            0   -7.1946954  -0.76593548 
Loop time of 0.0143449 on 1 procs for 32 steps with 256 atoms
Step Temp E_pair E_mol TotEng Press 
    6144  0.080972272   -7.3156793            0   -7.1946954  -0.76593548 
    6176   0.08621614   -7.3235356            0   -7.1947166  -0.80817978 
Loop time of 0.0142879 on 1 procs for 32 steps with 256 atoms
Step Temp E_pair E_mol TotEng Press 
    6176   0.08621614   -7.3235356            0   -7.1947166  -0.80817978 
    6208  0.084434889     -7.32086            0   -7.1947024  -0.79958147 
Loop time of 0.0143828 on 1 procs for 32 steps with 256 atoms
Step Temp E_pair E_mol TotEng Press 
    6208  0.084434889     -7.32086            0   -7.1947024  -0.79958147 
    6240   0.08328998   -7.3191392            0   -7.1946923  -0.78806141 
Loop time of 0.0143452 on 1 procs for 32 steps with 256 atoms
Step Temp E_pair E_mol TotEng Press 
    6240   0.08328998   -7.3191392            0   -7.1946923  -0.78806141 
    6272  0.085227376   -7.3220489            0   -7.1947072  -0.79909036 
Loop time of 0.014313 on 1 procs for 32 steps with 256 atoms
Step Temp E_pair E_mol TotEng Press 
    6272  0.085227376   -7.3220489            0   -7.1947072  -0.79909036 
    6304  0.087849556   -7.3259724            0   -7.1947128  -0.82428075 
Loop time of 0.014339 on 1 procs for 32 steps with 256 atoms
Step Temp E_pair E_mol TotEng Press 
    6304  0.087849556   -7.3259724            0   -7.1947128  -0.82428075 
    6336  0.083684151   -7.3197307            0   -7.1946948  -0.79306572 
Loop time of 0.014323 on 1 procs for 32 steps with 256 atoms
Step Temp E_pair E_mol TotEng Press 
    6336  0.083684151   -7.3197307            0   -7.1946948  -0.79306572 
    6368  0.076213622   -7.3085457            0   -7.1946718  -0.73156825 
Loop time of 0.014308 on 1 procs for 32 steps with 256 atoms
Step Temp E_pair E_mol TotEng Press 
    6368  0.076213622   -7.3085457            0   -7.1946718  -0.73156825 
    6400  0.079858196   -7.3140003            0   -7.1946809  -0.75246183 
Loop time of 0.0142989 on 1 procs for 32 steps with 256 atoms
Step Temp E_pair E_mol TotEng Press 
    6400  0.079858196   -7.3140003            0   -7.1946809  -0.75246183 
    6432   0.08123334   -7.3160555            0   -7.1946815  -0.77356143 
Loop time of 0.014384 on 1 procs for 32 steps with 256 atoms
Step Temp E_pair E_mol TotEng Press 
    6432   0.08123334   -7.3160555            0   -7.1946815  -0.77356143 
    6464  0.080062208   -7.3143022            0    -7.194678  -0.76136782 
Loop time of 0.0143151 on 1 procs for 32 steps with 256 atoms
Step Temp E_pair E_mol TotEng Press 
    6464  0.080062208   -7.3143022            0    -7.194678  -0.76136782 
    6496  0.078890977   -7.3125506            0   -7.1946764  -0.75018382 
Loop time of 0.014297 on 1 procs for 32 steps with 256 atoms
Step Temp E_pair E_mol TotEng Press 
    6496  0.078890977   -7.3125506            0   -7.1946764  -0.75018382 
    6528  0.085630437   -7.3226494            0   -7.1947055  -0.80289288 
Loop time of 0.0142848 on 1 procs for 32 steps with 256 atoms
Step Temp E_pair E_mol TotEng Press 
    6528  0.085630437   -7.3226494            0   -7.1947055  -0.80289288 
    6560  0.089652838   -7.3286774            0   -7.1947235  -0.84146258 
Loop time of 0.0143201 on 1 procs for 32 steps with 256 atoms
Step Temp E_pair E_mol TotEng Press 
    6560  0.089652838   -7.3286774            0   -7.1947235  -0.84146258 
    6592  0.086416367   -7.3238227            0   -7.1947044  -0.80859016 
Loop time of 0.014313 on 1 procs for 32 steps with 256 atoms
Step Temp E_pair E_mol TotEng Press 
    6592  0.086416367   -7.3238227            0   -7.1947044  -0.80859016 
    6624  0.077503119   -7.3104757            0   -7.1946752  -0.73299295 
Loop time of 0.014292 on 1 procs for 32 steps with 256 atoms
Step Temp E_pair E_mol TotEng Press 
    6624  0.077503119   -7.3104757            0   -7.1946752  -0.73299295 
    6656  0.080753152   -7.3153362            0   -7.1946796  -0.76865403 
Loop time of 0.017123 on 1 procs for 32 steps with 256 atoms
Step Temp E_pair E_mol TotEng Press 
    6656  0.080753152   -7.3153362            0   -7.1946796  -0.76865403 
    6688  0.083031378   -7.3187474            0   -7.1946868  -0.78993615 
Loop time of 0.0143631 on 1 procs for 32 steps with 256 atoms
Step Temp E_pair E_mol TotEng Press 
    6688  0.083031378   -7.3187474            0   -7.1946868  -0.78993615 
    6720  0.079969029   -7.3141784            0   -7.1946935  -0.75618443 
Loop time of 0.014307 on 1 procs for 32 steps with 256 atoms
Step Temp E_pair E_mol TotEng Press 
    6720  0.079969029   -7.3141784            0   -7.1946935  -0.75618443 
    6752  0.082161312   -7.3174523            0   -7.1946917  -0.77227259 
Loop time of 0.0145218 on 1 procs for 32 steps with 256 atoms
Step Temp E_pair E_mol TotEng Press 
    6752  0.082161312   -7.3174523            0   -7.1946917  -0.77227259 
    6784  0.086247749   -7.3235655            0   -7.1946992  -0.81368459 
Loop time of 0.014411 on 1 procs for 32 steps with 256 atoms
Step Temp E_pair E_mol TotEng Press 
    6784  0.086247749   -7.3235655            0   -7.1946992  -0.81368459 
    6816  0.079722951   -7.3138043            0    -7.194687  -0.75952258 
Loop time of 0.014353 on 1 procs for 32 steps with 256 atoms
Step Temp E_pair E_mol TotEng Press 
    6816  0.079722951   -7.3138043            0    -7.194687  -0.75952258 
    6848  0.082590226   -7.3180913            0   -7.1946899  -0.77949741 
Loop time of 0.014354 on 1 procs for 32 steps with 256 atoms
Step Temp E_pair E_mol TotEng Press 
    6848  0.082590226   -7.3180913            0   -7.1946899  -0.77949741 
    6880  0.087693022   -7.3257328            0   -7.1947071  -0.82410405 
Loop time of 0.014343 on 1 procs for 32 steps with 256 atoms
Step Temp E_pair E_mol TotEng Press 
    6880  0.087693022   -7.3257328            0   -7.1947071  -0.82410405 
    6912  0.083389295   -7.3192765            0   -7.1946812  -0.79392139 
Loop time of 0.0143771 on 1 procs for 32 steps with 256 atoms
Step Temp E_pair E_mol TotEng Press 
    6912  0.083389295   -7.3192765            0   -7.1946812  -0.79392139 
    6944  0.080164647    -7.314447            0   -7.1946698  -0.76255055 
Loop time of 0.0143559 on 1 procs for 32 steps with 256 atoms
Step Temp E_pair E_mol TotEng Press 
    6944  0.080164647    -7.314447            0   -7.1946698  -0.76255055 
    6976  0.079379402   -7.3132853            0   -7.1946814  -0.75270782 
Loop time of 0.0143468 on 1 procs for 32 steps with 256 atoms
Step Temp E_pair E_mol TotEng Press 
    6976  0.079379402   -7.3132853            0   -7.1946814  -0.75270782 
    7008  0.091382373   -7.3312282            0     -7.19469  -0.85922166 
Loop time of 0.014359 on 1 procs for 32 steps with 256 atoms
Step Temp E_pair E_mol TotEng Press 
    7008  0.091382373   -7.3312282            0     -7.19469  -0.85922166 
    7040  0.078597976   -7.3121077            0   -7.1946713  -0.74531512 
Loop time of 0.0143731 on 1 procs for 32 steps with 256 atoms
Step Temp E_pair E_mol TotEng Press 
    7040  0.078597976   -7.3121077            0   -7.1946713  -0.74531512 
    7072  0.082452078   -7.3178641            0   -7.1946691  -0.77845298 
Loop time of 0.014348 on 1 procs for 32 steps with 256 atoms
Step Temp E_pair E_mol TotEng Press 
    7072  0.082452078   -7.3178641            0   -7.1946691  -0.77845298 
    7104  0.083138289   -7.3189069            0   -7.1946867  -0.78879612 
Loop time of 0.0143709 on 1 procs for 32 steps with 256 atoms
Step Temp E_pair E_mol TotEng Press 
    7104  0.083138289   -7.3189069            0   -7.1946867  -0.78879612 
    7136  0.084118714    -7.320364            0   -7.1946788  -0.79770535 
Loop time of 0.0143771 on 1 procs for 32 steps with 256 atoms
Step Temp E_pair E_mol TotEng Press 
    7136  0.084118714    -7.320364            0   -7.1946788  -0.79770535 
    7168  0.078903525   -7.3125653            0   -7.1946724  -0.74936179 
Loop time of 0.0143409 on 1 procs for 32 steps with 256 atoms
Step Temp E_pair E_mol TotEng Press 
    7168  0.078903525   -7.3125653            0   -7.1946724  -0.74936179 
    7200  0.082353967   -7.3177381            0   -7.1946897  -0.77348761 
Loop time of 0.0143578 on 1 procs for 32 steps with 256 atoms
Step Temp E_pair E_mol TotEng Press 
    7200  0.082353967   -7.3177381            0   -7.1946897  -0.77348761 
    7232  0.086895456   -7.3245306            0   -7.1946965  -0.82253147 
Loop time of 0.014365 on 1 procs for 32 steps with 256 atoms
Step Temp E_pair E_mol TotEng Press 
    7232  0.086895456   -7.3245306            0   -7.1946965  -0.82253147 
    7264  0.080939575   -7.3156073            0   -7.1946722  -0.76371902 
Loop time of 0.014365 on 1 procs for 32 steps with 256 atoms
Step Temp E_pair E_mol TotEng Press 
    7264  0.080939575   -7.3156073            0   -7.1946722  -0.76371902 
    7296  0.085334098   -7.3221933            0   -7.1946921  -0.79915558 
Loop time of 0.0143449 on 1 procs for 32 steps with 256 atoms
Step Temp E_pair E_mol TotEng Press 
    7296  0.085334098   -7.3221933            0   -7.1946921  -0.79915558 
    7328  0.085318348   -7.3221607            0   -7.1946831   -0.8062753 
Loop time of 0.0143609 on 1 procs for 32 steps with 256 atoms
Step Temp E_pair E_mol TotEng Press 
    7328  0.085318348   -7.3221607            0   -7.1946831   -0.8062753 
    7360  0.083771456   -7.3198322            0   -7.1946659  -0.79287057 
Loop time of 0.0143569 on 1 procs for 32 steps with 256 atoms
Step Temp E_pair E_mol TotEng Press 
    7360  0.083771456   -7.3198322            0   -7.1946659  -0.79287057 
    7392   0.07971848   -7.3137733            0   -7.1946626   -0.7585356 
Loop time of 0.0143652 on 1 procs for 32 steps with 256 atoms
Step Temp E_pair E_mol TotEng Press 
    7392   0.07971848   -7.3137733            0   -7.1946626   -0.7585356 
    7424  0.081192318   -7.3159737            0   -7.1946609   -0.7699059 
Loop time of 0.0143561 on 1 procs for 32 steps with 256 atoms
Step Temp E_pair E_mol TotEng Press 
    7424  0.081192318   -7.3159737            0   -7.1946609   -0.7699059 
    7456    0.0830895   -7.3188089            0   -7.1946615  -0.79169454 
Loop time of 0.0143499 on 1 procs for 32 steps with 256 atoms
Step Temp E_pair E_mol TotEng Press 
    7456    0.0830895   -7.3188089            0   -7.1946615  -0.79169454 
    7488  0.079924987   -7.3140691            0     -7.19465  -0.76186145 
Loop time of 0.014359 on 1 procs for 32 steps with 256 atoms
Step Temp E_pair E_mol TotEng Press 
    7488  0.079924987   -7.3140691            0     -7.19465  -0.76186145 
    7520  0.086161022   -7.3234065            0   -7.1946698  -0.80487728 
Loop time of 0.0143521 on 1 procs for 32 steps with 256 atoms
Step Temp E_pair E_mol TotEng Press 
    7520  0.086161022   -7.3234065            0   -7.1946698  -0.80487728 
    7552  0.089049917   -7.3277331            0     -7.19468  -0.83503019 
Loop time of 0.0143702 on 1 procs for 32 steps with 256 atoms
Step Temp E_pair E_mol TotEng Press 
    7552  0.089049917   -7.3277331            0     -7.19468  -0.83503019 
    7584  0.081799613   -7.3168751            0   -7.1946549  -0.77958141 
Loop time of 0.0143602 on 1 procs for 32 steps with 256 atoms
Step Temp E_pair E_mol TotEng Press 
    7584  0.081799613   -7.3168751            0   -7.1946549  -0.77958141 
    7616  0.082975152   -7.3186334            0   -7.1946569  -0.79002648 
Loop time of 0.01437 on 1 procs for 32 steps with 256 atoms
Step Temp E_pair E_mol TotEng Press 
    7616  0.082975152   -7.3186334            0   -7.1946569  -0.79002648 
    7648  0.079980126   -7.3141462            0   -7.1946447  -0.75999055 
Loop time of 0.014374 on 1 procs for 32 steps with 256 atoms
Step Temp E_pair E_mol TotEng Press 
    7648  0.079980126   -7.3141462            0   -7.1946447  -0.75999055 
    7680  0.083749605   -7.3197929            0   -7.1946592  -0.79509722 
Loop time of 0.0143499 on 1 procs for 32 steps with 256 atoms
Step Temp E_pair E_mol TotEng Press 
    7680  0.083749605   -7.3197929            0   -7.1946592  -0.79509722 
    7712  0.080407406   -7.3147979            0   -7.1946579  -0.76882626 
Loop time of 0.014364 on 1 procs for 32 steps with 256 atoms
Step Temp E_pair E_mol TotEng Press 
    7712  0.080407406   -7.3147979            0   -7.1946579  -0.76882626 
    7744  0.078659162   -7.3121756            0   -7.1946477  -0.74908045 
Loop time of 0.014354 on 1 procs for 32 steps with 256 atoms
Step Temp E_pair E_mol TotEng Press 
    7744  0.078659162   -7.3121756            0   -7.1946477  -0.74908045 
    7776  0.086268621   -7.3235597            0   -7.1946623  -0.81601346 
Loop time of 0.01437 on 1 procs for 32 steps with 256 atoms
Step Temp E_pair E_mol TotEng Press 
    7776  0.086268621   -7.3235597            0   -7.1946623  -0.81601346 
    7808  0.083747046   -7.3198119            0    -7.194682  -0.78871404 
Loop time of 0.0143619 on 1 procs for 32 steps with 256 atoms
Step Temp E_pair E_mol TotEng Press 
    7808  0.083747046   -7.3198119            0    -7.194682  -0.78871404 
    7840  0.086326969   -7.3236819            0   -7.1946973  -0.81454629 
Loop time of 0.0143681 on 1 procs for 32 steps with 256 atoms
Step Temp E_pair E_mol TotEng Press 
    7840  0.086326969   -7.3236819            0   -7.1946973  -0.81454629 
    7872  0.082015101   -7.3172179            0   -7.1946759  -0.77321774 
Loop time of 0.0143461 on 1 procs for 32 steps with 256 atoms
Step Temp E_pair E_mol TotEng Press 
    7872  0.082015101   -7.3172179            0   -7.1946759  -0.77321774 
    7904  0.082990843   -7.3186727            0   -7.1946727  -0.79003259 
Loop time of 0.0143731 on 1 procs for 32 steps with 256 atoms
Step Temp E_pair E_mol TotEng Press 
    7904  0.082990843   -7.3186727            0   -7.1946727  -0.79003259 
    7936  0.084212941   -7.3205106            0   -7.1946846  -0.80110038 
Loop time of 0.014354 on 1 procs for 32 steps with 256 atoms
Step Temp E_pair E_mol TotEng Press 
    7936  0.084212941   -7.3205106            0   -7.1946846  -0.80110038 
    7968  0.082583298   -7.3180834            0   -7.1946924  -0.78514657 
Loop time of 0.0143669 on 1 procs for 32 steps with 256 atoms
Step Temp E_pair E_mol TotEng Press 
    7968  0.082583298   -7.3180834            0   -7.1946924  -0.78514657 
    8000  0.084323074   -7.3206914            0   -7.1947009  -0.79785453 
Loop time of 0.0143712 on 1 procs for 32 steps with 256 atoms
Step Temp E_pair E_mol TotEng Press 
    8000  0.084323074   -7.3206914            0   -7.1947009  -0.79785453 
    8032  0.084488836   -7.3209328            0   -7.1946946   -0.8053226 
Loop time of 0.014365 on 1 procs for 32 steps with 256 atoms
Step Temp E_pair E_mol TotEng Press 
    8032  0.084488836   -7.3209328            0   -7.1946946   -0.8053226 
    8064  0.090853801   -7.3304666            0   -7.1947182  -0.84716342 
Loop time of 0.0143518 on 1 procs for 32 steps with 256 atoms
Step Temp E_pair E_mol TotEng Press 
    8064  0.090853801   -7.3304666            0   -7.1947182  -0.84716342 
    8096  0.084769868   -7.3213675            0   -7.1947094  -0.79627171 
Loop time of 0.0143499 on 1 procs for 32 steps with 256 atoms
Step Temp E_pair E_mol TotEng Press 
    8096  0.084769868   -7.3213675            0   -7.1947094  -0.79627171 
    8128  0.081204774   -7.3160225            0   -7.1946911  -0.77541621 
Loop time of 0.014359 on 1 procs for 32 steps with 256 atoms
Step Temp E_pair E_mol TotEng Press 
    8128  0.081204774   -7.3160225            0   -7.1946911  -0.77541621 
    8160  0.078948178    -7.312636            0   -7.1946763   -0.7596421 
Loop time of 0.0143681 on 1 procs for 32 steps with 256 atoms
Step Temp E_pair E_mol TotEng Press 
    8160  0.078948178    -7.312636            0   -7.1946763   -0.7596421 
    8192  0.078394993   -7.3118079            0   -7.1946748  -0.75077396 
Loop time of 0.0143559 on 1 procs for 32 steps with 256 atoms
Step Temp E_pair E_mol TotEng Press 
    8192  0.078394993   -7.3118079            0   -7.1946748  -0.75077396 
    8224  0.080195588   -7.3145068            0   -7.1946833  -0.76771474 
Loop time of 0.01438 on 1 procs for 32 steps with 256 atoms
Step Temp E_pair E_mol TotEng Press 
    8224  0.080195588   -7.3145068            0   -7.1946833  -0.76771474 
    8256  0.078954214   -7.3126499            0   -7.1946812  -0.75426241 
Loop time of 0.014364 on 1 procs for 32 steps with 256 atoms
Step Temp E_pair E_mol TotEng Press 
    8256  0.078954214   -7.3126499            0   -7.1946812  -0.75426241 
    8288  0.085900919   -7.3230509            0   -7.1947029  -0.80774018 
Loop time of 0.0143659 on 1 procs for 32 steps with 256 atoms
Step Temp E_pair E_mol TotEng Press 
    8288  0.085900919   -7.3230509            0   -7.1947029  -0.80774018 
    8320  0.084844338    -7.321478            0   -7.1947086  -0.80410377 
Loop time of 0.014364 on 1 procs for 32 steps with 256 atoms
Step Temp E_pair E_mol TotEng Press 
    8320  0.084844338    -7.321478            0   -7.1947086  -0.80410377 
    8352  0.081123786   -7.3159043            0    -7.194694   -0.7678227 
Loop time of 0.01438 on 1 procs for 32 steps with 256 atoms
Step Temp E_pair E_mol TotEng Press 
    8352  0.081123786   -7.3159043            0    -7.194694   -0.7678227 
    8384  0.083318911   -7.3191915            0   -7.1947014  -0.79152568 
Loop time of 0.014384 on 1 procs for 32 steps with 256 atoms
Step Temp E_pair E_mol TotEng Press 
    8384  0.083318911   -7.3191915            0   -7.1947014  -0.79152568 
    8416   0.08537534   -7.3222777            0    -7.194715  -0.80435317 
Loop time of 0.014369 on 1 procs for 32 steps with 256 atoms
Step Temp E_pair E_mol TotEng Press 
    8416   0.08537534   -7.3222777            0    -7.194715  -0.80435317 
    8448  0.083840822   -7.3199756            0   -7.1947057  -0.79510286 
Loop time of 0.0143759 on 1 procs for 32 steps with 256 atoms
Step Temp E_pair E_mol TotEng Press 
    8448  0.083840822   -7.3199756            0   -7.1947057  -0.79510286 
    8480  0.082097159   -7.3173523            0   -7.1946876  -0.78730241 
Loop time of 0.0143571 on 1 procs for 32 steps with 256 atoms
Step Temp E_pair E_mol TotEng Press 
    8480  0.082097159   -7.3173523            0   -7.1946876  -0.78730241 
    8512  0.083008522    -7.318719            0   -7.1946926  -0.78992312 
Loop time of 0.0143731 on 1 procs for 32 steps with 256 atoms
Step Temp E_pair E_mol TotEng Press 
    8512  0.083008522    -7.318719            0   -7.1946926  -0.78992312 
    8544  0.081555792   -7.3165417            0   -7.1946859  -0.77299629 
Loop time of 0.014365 on 1 procs for 32 steps with 256 atoms
Step Temp E_pair E_mol TotEng Press 
    8544  0.081555792   -7.3165417            0   -7.1946859  -0.77299629 
    8576  0.085357445   -7.3222355            0   -7.1946995  -0.80645454 
Loop time of 0.014354 on 1 procs for 32 steps with 256 atoms
Step Temp E_pair E_mol TotEng Press 
    8576  0.085357445   -7.3222355            0   -7.1946995  -0.80645454 
    8608  0.085578424   -7.3225891            0   -7.1947229  -0.81164861 
Loop time of 0.0143452 on 1 procs for 32 steps with 256 atoms
Step Temp E_pair E_mol TotEng Press 
    8608  0.085578424   -7.3225891            0   -7.1947229  -0.81164861 
    8640   0.08216755   -7.3174724            0   -7.1947025  -0.77949767 
Loop time of 0.0143521 on 1 procs for 32 steps with 256 atoms
Step Temp E_pair E_mol TotEng Press 
    8640   0.08216755   -7.3174724            0   -7.1947025  -0.77949767 
    8672  0.083274014   -7.3191102            0   -7.1946871  -0.78467112 
Loop time of 0.0143418 on 1 procs for 32 steps with 256 atoms
Step Temp E_pair E_mol TotEng Press 
    8672  0.083274014   -7.3191102            0   -7.1946871  -0.78467112 
    8704  0.077920708      -7.3111            0   -7.1946755  -0.75097946 
Loop time of 0.0143631 on 1 procs for 32 steps with 256 atoms
Step Temp E_pair E_mol TotEng Press 
    8704  0.077920708      -7.3111            0   -7.1946755  -0.75097946 
    8736  0.081833965   -7.3169746            0   -7.1947032   -0.7786682 
Loop time of 0.014364 on 1 procs for 32 steps with 256 atoms
Step Temp E_pair E_mol TotEng Press 
    8736  0.081833965   -7.3169746            0   -7.1947032   -0.7786682 
    8768  0.084657206   -7.3211925            0   -7.1947027  -0.79823402 
Loop time of 0.0143559 on 1 procs for 32 steps with 256 atoms
Step Temp E_pair E_mol TotEng Press 
    8768  0.084657206   -7.3211925            0   -7.1947027  -0.79823402 
    8800  0.087760001   -7.3258392            0   -7.1947134  -0.82427152 
Loop time of 0.014353 on 1 procs for 32 steps with 256 atoms
Step Temp E_pair E_mol TotEng Press 
    8800  0.087760001   -7.3258392            0   -7.1947134  -0.82427152 
    8832  0.088106761   -7.3263649            0    -7.194721  -0.82937504 
Loop time of 0.0143509 on 1 procs for 32 steps with 256 atoms
Step Temp E_pair E_mol TotEng Press 
    8832  0.088106761   -7.3263649            0    -7.194721  -0.82937504 
    8864  0.080285573   -7.3146511            0   -7.1946931  -0.76702673 
Loop time of 0.0145371 on 1 procs for 32 steps with 256 atoms
Step Temp E_pair E_mol TotEng Press 
    8864  0.080285573   -7.3146511            0   -7.1946931  -0.76702673 
    8896  0.081670306   -7.3167058            0   -7.1946789  -0.77638316 
Loop time of 0.014364 on 1 procs for 32 steps with 256 atoms
Step Temp E_pair E_mol TotEng Press 
    8896  0.081670306   -7.3167058            0   -7.1946789  -0.77638316 
    8928  0.078617969   -7.3121487            0   -7.1946824  -0.74927943 
Loop time of 0.0143151 on 1 procs for 32 steps with 256 atoms
Step Temp E_pair E_mol TotEng Press 
    8928  0.078617969   -7.3121487            0   -7.1946824  -0.74927943 
    8960  0.089296034   -7.3281482            0   -7.1947274  -0.83769594 
Loop time of 0.0143399 on 1 procs for 32 steps with 256 atoms
Step Temp E_pair E_mol TotEng Press 
    8960  0.089296034   -7.3281482            0   -7.1947274  -0.83769594 
    8992  0.084313135   -7.3206737            0    -7.194698  -0.79395058 
Loop time of 0.0143239 on 1 procs for 32 steps with 256 atoms
Step Temp E_pair E_mol TotEng Press 
    8992  0.084313135   -7.3206737            0    -7.194698  -0.79395058 
    9024  0.082654638   -7.3181863            0   -7.1946886   -0.7798523 
Loop time of 0.0143211 on 1 procs for 32 steps with 256 atoms
Step Temp E_pair E_mol TotEng Press 
    9024  0.082654638   -7.3181863            0   -7.1946886   -0.7798523 
    9056  0.087418175   -7.3253145            0   -7.1946995  -0.82416901 
Loop time of 0.014343 on 1 procs for 32 steps with 256 atoms
Step Temp E_pair E_mol TotEng Press 
    9056  0.087418175   -7.3253145            0   -7.1946995  -0.82416901 
    9088  0.080661757   -7.3152086            0   -7.1946886  -0.76397992 
Loop time of 0.0143571 on 1 procs for 32 steps with 256 atoms
Step Temp E_pair E_mol TotEng Press 
    9088  0.080661757   -7.3152086            0   -7.1946886  -0.76397992 
    9120  0.082347162   -7.3177239            0   -7.1946857  -0.77725493 
Loop time of 0.0143409 on 1 procs for 32 steps with 256 atoms
Step Temp E_pair E_mol TotEng Press 
    9120  0.082347162   -7.3177239            0   -7.1946857  -0.77725493 
    9152  0.081897666    -7.317074            0   -7.1947074   -0.7752277 
Loop time of 0.0143371 on 1 procs for 32 steps with 256 atoms
Step Temp E_pair E_mol TotEng Press 
    9152  0.081897666    -7.317074            0   -7.1947074   -0.7752277 
    9184  0.083602693   -7.3196164            0   -7.1947023   -0.7923124 
Loop time of 0.0143762 on 1 procs for 32 steps with 256 atoms
Step Temp E_pair E_mol TotEng Press 
    9184  0.083602693   -7.3196164            0   -7.1947023   -0.7923124 
    9216  0.084111383   -7.3203932            0    -7.194719  -0.80035306 
Loop time of 0.0143631 on 1 procs for 32 steps with 256 atoms
Step Temp E_pair E_mol TotEng Press 
    9216  0.084111383   -7.3203932            0    -7.194719  -0.80035306 
    9248   0.08023726   -7.3145909            0   -7.1947051  -0.76262426 
Loop time of 0.014364 on 1 procs for 32 steps with 256 atoms
Step Temp E_pair E_mol TotEng Press 
    9248   0.08023726   -7.3145909            0   -7.1947051  -0.76262426 
    9280  0.083995656   -7.3201958            0   -7.1946945  -0.79745328 
Loop time of 0.0143209 on 1 procs for 32 steps with 256 atoms
Step Temp E_pair E_mol TotEng Press 
    9280  0.083995656   -7.3201958            0   -7.1946945  -0.79745328 
    9312  0.074171863   -7.3054882            0    -7.194665  -0.71317368 
Loop time of 0.014354 on 1 procs for 32 steps with 256 atoms
Step Temp E_pair E_mol TotEng Press 
    9312  0.074171863   -7.3054882            0    -7.194665  -0.71317368 
    9344  0.076605968   -7.3091315            0   -7.1946714  -0.73375668 
Loop time of 0.0143309 on 1 procs for 32 steps with 256 atoms
Step Temp E_pair E_mol TotEng Press 
    9344  0.076605968   -7.3091315            0   -7.1946714  -0.73375668 
    9376  0.077673842   -7.3107443            0   -7.1946887  -0.74858101 
Loop time of 0.0143311 on 1 procs for 32 steps with 256 atoms
Step Temp E_pair E_mol TotEng Press 
    9376  0.077673842   -7.3107443            0   -7.1946887  -0.74858101 
    9408  0.080715144   -7.3153137            0   -7.1947139  -0.77370591 
Loop time of 0.0143569 on 1 procs for 32 steps with 256 atoms
Step Temp E_pair E_mol TotEng Press 
    9408  0.080715144   -7.3153137            0   -7.1947139  -0.77370591 
    9440  0.087179493    -7.324974            0   -7.1947155  -0.81922212 
Loop time of 0.014327 on 1 procs for 32 steps with 256 atoms
Step Temp E_pair E_mol TotEng Press 
    9440  0.087179493    -7.324974            0   -7.1947155  -0.81922212 
    9472  0.081923459   -7.3171121            0   -7.1947069  -0.77719385 
Loop time of 0.014334 on 1 procs for 32 steps with 256 atoms
Step Temp E_pair E_mol TotEng Press 
    9472  0.081923459   -7.3171121            0   -7.1947069  -0.77719385 
    9504   0.08206882   -7.3173381            0   -7.1947157  -0.78015496 
Loop time of 0.0143569 on 1 procs for 32 steps with 256 atoms
Step Temp E_pair E_mol TotEng Press 
    9504   0.08206882   -7.3173381            0   -7.1947157  -0.78015496 
    9536  0.086210925   -7.3235462            0   -7.1947349  -0.80690668 
Loop time of 0.0143399 on 1 procs for 32 steps with 256 atoms
Step Temp E_pair E_mol TotEng Press 
    9536  0.086210925   -7.3235462            0   -7.1947349  -0.80690668 
    9568  0.086314195    -7.323692            0   -7.1947265  -0.81667831 
Loop time of 0.0143089 on 1 procs for 32 steps with 256 atoms
Step Temp E_pair E_mol TotEng Press 
    9568  0.086314195    -7.323692            0   -7.1947265  -0.81667831 
    9600  0.079374878   -7.3133138            0   -7.1947165  -0.75684742 
Loop time of 0.014322 on 1 procs for 32 steps with 256 atoms
Step Temp E_pair E_mol TotEng Press 
    9600  0.079374878   -7.3133138            0   -7.1947165  -0.75684742 
    9632  0.081190133   -7.3160216            0   -7.1947121   -0.7736261 
Loop time of 0.014349 on 1 procs for 32 steps with 256 atoms
Step Temp E_pair E_mol TotEng Press 
    9632  0.081190133   -7.3160216            0   -7.1947121   -0.7736261 
    9664  0.084979081    -7.321712            0   -7.1947413  -0.80240115 
Loop time of 0.014365 on 1 procs for 32 steps with 256 atoms
Step Temp E_pair E_mol TotEng Press 
    9664  0.084979081    -7.321712            0   -7.1947413  -0.80240115 
    9696  0.083544476   -7.3195638            0   -7.1947366  -0.79211506 
Loop time of 0.0143101 on 1 procs for 32 steps with 256 atoms
Step Temp E_pair E_mol TotEng Press 
    9696  0.083544476   -7.3195638            0   -7.1947366  -0.79211506 
    9728  0.083365228   -7.3193011            0   -7.1947417  -0.79163156 
Loop time of 0.0143311 on 1 procs for 32 steps with 256 atoms
Step Temp E_pair E_mol TotEng Press 
    9728  0.083365228   -7.3193011            0   -7.1947417  -0.79163156 
    9760  0.087389465   -7.3253319            0   -7.1947597  -0.82133505 
Loop time of 0.014334 on 1 procs for 32 steps with 256 atoms
Step Temp E_pair E_mol TotEng Press 
    9760  0.087389465   -7.3253319            0   -7.1947597  -0.82133505 
    9792  0.089304716   -7.3281807            0   -7.1947469  -0.83626527 
Loop time of 0.0143321 on 1 procs for 32 steps with 256 atoms
Step Temp E_pair E_mol TotEng Press 
    9792  0.089304716   -7.3281807            0   -7.1947469  -0.83626527 
    9824  0.078521288   -7.3120413            0   -7.1947195  -0.75069061 
Loop time of 0.014354 on 1 procs for 32 steps with 256 atoms
Step Temp E_pair E_mol TotEng Press 
    9824  0.078521288   -7.3120413            0   -7.1947195  -0.75069061 
    9856  0.085362763   -7.3222901            0   -7.1947461  -0.81118215 
Loop time of 0.014354 on 1 procs for 32 steps with 256 atoms
Step Temp E_pair E_mol TotEng Press 
    9856  0.085362763   -7.3222901            0   -7.1947461  -0.81118215 
    9888  0.082978714   -7.3187156            0   -7.1947338  -0.79098124 
Loop time of 0.014338 on 1 procs for 32 steps with 256 atoms
Step Temp E_pair E_mol TotEng Press 
    9888  0.082978714   -7.3187156            0   -7.1947338  -0.79098124 
    9920  0.083676538   -7.3197522            0   -7.1947277  -0.79630448 
Loop time of 0.014328 on 1 procs for 32 steps with 256 atoms
Step Temp E_pair E_mol TotEng Press 
    9920  0.083676538   -7.3197522            0   -7.1947277  -0.79630448 
    9952  0.080389387   -7.3148361            0   -7.1947231  -0.77018488 
Loop time of 0.014333 on 1 procs for 32 steps with 256 atoms
Step Temp E_pair E_mol TotEng Press 
    9952  0.080389387   -7.3148361            0   -7.1947231  -0.77018488 
    9984  0.085674504   -7.3227623            0   -7.1947526  -0.80815185 
Loop time of 0.0143139 on 1 procs for 32 steps with 256 atoms
Step Temp E_pair E_mol TotEng Press 
    9984  0.085674504   -7.3227623            0   -7.1947526  -0.80815185 
   10016  0.083948654   -7.3201771            0    -7.194746  -0.79542152 
Loop time of 0.0143239 on 1 procs for 32 steps with 256 atoms
Step Temp E_pair E_mol TotEng Press 
   10016  0.083948654   -7.3201771            0    -7.194746  -0.79542152 
   10048  0.083470292   -7.3194596            0   -7.1947432  -0.79014001 
Loop time of 0.0143242 on 1 procs for 32 steps with 256 atoms
Step Temp E_pair E_mol TotEng Press 
   10048  0.083470292   -7.3194596            0   -7.1947432  -0.79014001 
   10080  0.087631607   -7.3256847            0   -7.1947508  -0.82923479 
Loop time of 0.0143239 on 1 procs for 32 steps with 256 atoms
Step Temp E_pair E_mol TotEng Press 
   10080  0.087631607   -7.3256847            0   -7.1947508  -0.82923479 
   10112  0.080225781   -7.3145959            0   -7.1947273  -0.76642063 
Loop time of 0.0143671 on 1 procs for 32 steps with 256 atoms
Step Temp E_pair E_mol TotEng Press 
   10112  0.080225781   -7.3145959            0   -7.1947273  -0.76642063 
   10144  0.076663352   -7.3092604            0   -7.1947145  -0.73889588 
Loop time of 0.014343 on 1 procs for 32 steps with 256 atoms
Step Temp E_pair E_mol TotEng Press 
   10144  0.076663352   -7.3092604            0   -7.1947145  -0.73889588 
   10176  0.082699209   -7.3182918            0   -7.1947275   -0.7847125 
Loop time of 0.0143261 on 1 procs for 32 steps with 256 atoms
Step Temp E_pair E_mol TotEng Press 
   10176  0.082699209   -7.3182918            0   -7.1947275   -0.7847125 
   10208  0.083831072   -7.3199967            0   -7.1947413  -0.79218965 
Loop time of 0.0143249 on 1 procs for 32 steps with 256 atoms
Step Temp E_pair E_mol TotEng Press 
   10208  0.083831072   -7.3199967            0   -7.1947413  -0.79218965 
[...]
  -4.42144523e-01  -5.07258916e-02  -4.17342202e-01   3.44174702e-01
   2.71075737e-01   1.78198549e-02  -1.41179861e-01  -9.79254386e-02
   1.02771458e-01   2.64989537e-01  -4.95035523e-04  -5.04170819e-01
   3.17084786e-01  -2.96084502e-01   1.42859412e-01   3.90543192e-02
   9.37863390e-04   2.37293517e-01   1.88322516e-01  -1.80501842e-01
   3.06573726e-01  -2.36609761e-01   4.05825425e-01   3.13084464e-01
  -4.07717303e-01   2.37809115e-01   4.37682501e-01   1.20912262e-01
  -1.22946199e-01   6.93430556e-02  -4.64224759e-01  -1.91048994e-01
   6.96466968e-01  -1.01195291e-01  -6.17605022e-01   6.34832473e-02
   2.49956047e-01   5.06938280e-01  -3.87542118e-03   2.79532094e-01
  -1.36678905e-01  -5.85184343e-01  -1.60434597e-01   2.27102266e-01
  -2.74114063e-01  -2.54382292e-01   3.27340902e-02  -1.63041027e-02
   3.76423743e-01   9.95813125e-02   2.21968664e-01  -2.24190868e-02
  -1.56352757e-01  -4.51336371e-01  -3.74994871e-01   4.62527077e-02
  -5.92350147e-02  -4.32818756e-02  -3.11013476e-01  -8.97731608e-02
  -5.23262864e-01  -2.26094321e-01  -1.73505107e-01   2.18157533e-01
   5.62501808e-02   2.42938544e-01  -2.77324739e-01   2.22840096e-01
   1.49862702e-01   1.26781591e-02   1.84959773e-01  -1.57389898e-01
  -3.14482385e-01   2.13850261e-01  -5.72894170e-01  -3.76495675e-01
  -1.89968813e-01  -2.50602177e-01   1.89942438e-01   2.52463727e-01
   1.07852954e-01  -1.18213735e-01   2.03750058e-01   3.57078482e-01
  -5.72014482e-01   1.42345790e-01  -1.37174903e-01   9.57233594e-02
  -7.94664052e-02  -1.74824608e-01   4.34113268e-01   3.24049154e-01
   2.56132284e-01   1.95201362e-01   3.47793164e-01   2.32953936e-01
  -6.44627971e-02   3.50254134e-01   4.80275457e-02  -7.40898005e-02
   2.26939982e-01  -1.14195928e-02   1.36155011e-01  -3.90941704e-01
   4.36667367e-01  -2.14718605e-01   3.97405881e-01  -9.88182095e-03
   1.27011269e-01   2.25209916e-01   5.80904596e-01  -2.31037794e-01
  -3.17284354e-01  -2.76308761e-01  -7.74020554e-02  -4.50432862e-01
   1.53371559e-01  -1.59754030e-01   2.72203265e-01  -2.97828254e-01
  -2.20675876e-02   1.69996720e-01  -1.94613714e-02  -1.52536088e-01
   1.99477152e-01  -3.44678199e-01   7.29246294e-02   5.19079751e-02
  -2.93068317e-01   2.73402257e-01   3.87443629e-01  -3.41194662e-01
  -1.34849387e-01   2.61288882e-01  -3.36707163e-01   3.16755310e-01
  -2.56122764e-01  -1.83221415e-01   5.54419539e-02  -1.37422404e-01
  -4.43824573e-02   2.90546472e-01  -4.96447560e-02  -1.80351495e-02
   3.57633284e-01   2.96327676e-02   2.11559315e-01   1.27727426e-01
   4.48175104e-02  -2.40680942e-02   5.06398426e-01  -2.12653172e-01
   1.91388603e-02  -1.45632270e-01   2.29862216e-01   5.33153815e-02
  -2.48908844e-01  -2.58601281e-02  -4.41151071e-01   4.99784348e-01
   2.88192587e-01  -1.66793384e-02   8.63653831e-02   4.39127125e-01
   1.54101904e-01  -6.02084961e-01  -3.06393127e-01  -4.96348503e-02
   5.53653801e-02   5.92097254e-02   2.77305322e-02  -2.59629487e-01
   3.47989801e-03  -1.93057105e-01  -5.28079360e-01  -2.45033850e-01
   3.30964346e-01   2.74887532e-02   1.23190800e-01  -3.23724947e-01
  -1.02966707e-02  -1.66959287e-01   9.47696955e-02   3.35247545e-03
  -2.39556487e-02  -1.99530136e-02  -5.17262428e-01  -4.29956549e-01
  -7.99472952e-03   1.26183311e-02   2.70296718e-01   8.27041296e-02
  -2.13197348e-01   1.16819256e-01   6.93060315e-02   1.54208541e-01
  -2.44625458e-02  -5.37367185e-02   8.26607820e-02  -1.59347845e-01
   1.06184023e-01  -2.33631783e-01  -1.38976918e-01  -1.28398827e-01
  -2.57150603e-01  -1.67953792e-01  -4.10497631e-01  -2.51324699e-01
  -2.19483745e-01   3.30770276e-01   5.27164291e-01  -2.37379205e-01
   9.80306616e-02   2.97166669e-01   1.63351617e-01  -2.71449392e-01
  -2.10435565e-01   2.94623031e-01  -5.61978522e-02  -2.57216504e-01
   3.10168562e-01   1.48767728e-01   3.45715820e-01   1.04862369e-01
   4.08321344e-01   3.19692112e-01  -1.96867144e-01   3.58555517e-01
  -4.04776571e-02   4.84904937e-01  -3.92321365e-02  -2.72874263e-02
  -6.81421784e-01  -5.50561528e-03  -2.75778795e-01  -1.47356784e-01
   3.05407451e-01   6.66085173e-02   5.07638486e-01   1.89164627e-01
  -3.78531541e-01   3.53841102e-02  -3.10710107e-01  -4.59895472e-02
   3.97783018e-01  -5.01209941e-01   5.29035109e-01  -2.66403652e-01
   1.40983906e-01   7.87481248e-02   1.66010283e-02   3.83839669e-01]
[-0.30702902  0.19611467 -0.0337129   0.05968766 -0.16823333  0.23262092
  0.35728034 -0.17899292  0.06460735  0.20732255 -0.01809115  0.07604992
  0.15941492 -0.45137639 -0.07109508  0.21328077 -0.52497657  0.13699009
 -0.18360543 -0.2582153  -0.04096606 -0.13004087 -0.06494404  0.25063078
  0.13621835  0.47421783  0.20285939  0.03624434  0.18993147 -0.10755178
 -0.26840535 -0.0684408   0.12308206 -0.08602214  0.34358542  0.08487307
 -0.2680893   0.19576756  0.47569394 -0.23702536 -0.25412395 -0.35824418
 -0.00968574 -0.27361452 -0.09006408  0.28773361  0.56820921 -0.16060576
  0.1554205  -0.12479313  0.05753707  0.13112923 -0.41696791 -0.13012222
  0.25937373 -0.08168575  0.16200407  0.2987437   0.4540207   0.37399596
  0.03296146 -0.04847718  0.02705487  0.05061199  0.19963729  0.08962838
  0.14457752 -0.06542266  0.06263358 -0.08588645 -0.13214502 -0.13958642
 -0.40708437  0.00666523 -0.21281485 -0.11296553 -0.05143685 -0.39808394
  0.4911458   0.11432934  0.18198472  0.34221268  0.10701647 -0.24281317
 -0.14716369  0.39922992  0.13830201 -0.28237577  0.34522567  0.35250132
  0.32042541 -0.01733229  0.44597828  0.11821411  0.1856801  -0.09490045
 -0.21779617 -0.02491918 -0.13448456 -0.41814712 -0.36367935 -0.54176129
 -0.15207026  0.17455912 -0.08244401 -0.04483185 -0.20487747  0.25647867
  0.0549034   0.20752974 -0.05656916  0.02136666 -0.19327741 -0.54590227
 -0.55993177  0.22481198  0.23829843  0.11493994  0.17267562  0.23253403
 -0.45622371  0.11743967 -0.45467014  0.07964167 -0.19510039 -0.31533901
 -0.58720206 -0.07255496 -0.0058532   0.44528163 -0.11507111  0.05386627
  0.46871549  0.34380994 -0.57698891  0.10800586  0.18062902  0.06664876
  0.49754749 -0.08702255 -0.07348259  0.13465227 -0.28392016  0.36223247
 -0.21986163 -0.28122767 -0.04823261 -0.04543722 -0.38737605  0.46086371
  0.00336664 -0.13763624  0.26258402  0.1009322  -0.1528452   0.12627135
 -0.04275235  0.17844448  0.23366605 -0.01178587  0.17481333 -0.04537515
  0.79565491 -0.29115611 -0.25859795 -0.08955637  0.01586647 -0.48352083
  0.17660669  0.679596    0.04250503  0.11599371 -0.14659197 -0.11792959
  0.01458598  0.05838323 -0.14113995 -0.19083991  0.16052833  0.44312485
 -0.37098126 -0.20866914 -0.18534112  0.30296166  0.44828141  0.08478601
  0.03745093  0.22201613  0.0221178   0.08989185  0.44876046  0.38002507
  0.01367917  0.06640804  0.20570798  0.32619497 -0.04420143 -0.16400794
  0.08673738 -0.23345074  0.00603435 -0.03973061 -0.18541955  0.0506375
  0.11278814 -0.046773   -0.04827202 -0.07747651 -0.03324574 -0.37038665
  0.00967802  0.10881392  0.40143818 -0.29893977 -0.53965817  0.26275256
 -0.36623239 -0.28122748 -0.6442419   0.20184907  0.10440135  0.29649055
 -0.23707024  0.07498387 -0.38774499 -0.22633842 -0.15889915 -0.09100471
 -0.13953732  0.08993119  0.2115621  -0.4022241   0.21166839 -0.2549572
  0.12896078 -0.10081465  0.65527928  0.01806804  0.24610398  0.01000142
 -0.5381603  -0.19393579 -0.32498097  0.07805783  0.18317274 -0.21175778
 -0.013349   -0.30035986 -0.25752683  0.57489914 -0.6149046   0.15770143
  0.04132785  0.17470493 -0.29626691 -0.3180567 ]
last line of python script
(1024, 256)
1024
(1024, 256)
1024
(1024, 256)
1024
2 pre no post no
Step Temp E_pair E_mol TotEng Press 
   31296  0.079837375   -7.3139157            0   -7.1946274  -0.76273425 
   31328  0.084465531   -7.3208516            0   -7.1946482  -0.79336335 
Loop time of 0.014606 on 1 procs for 32 steps with 256 atoms
run 32 pre no post no
Step Temp E_pair E_mol TotEng Press 
   31328  0.084465531   -7.3208516            0   -7.1946482  -0.79336335 
   31360  0.084863211   -7.3214217            0   -7.1946242  -0.79987734 
Loop time of 0.014333 on 1 procs for 32 steps with 256 atoms
run 32 pre no post no
Step Temp E_pair E_mol TotEng Press 
   31360  0.084863211   -7.3214217            0   -7.1946242  -0.79987734 
   31392  0.078866218   -7.3124593            0    -7.194622  -0.74541994 
Loop time of 0.014329 on 1 procs for 32 steps with 256 atoms
run 32 pre no post no
Step Temp E_pair E_mol TotEng Press 
   31392  0.078866218   -7.3124593            0    -7.194622  -0.74541994 
   31424  0.076518094   -7.3089333            0   -7.1946045  -0.73570757 
Loop time of 0.014462 on 1 procs for 32 steps with 256 atoms
run 32 pre no post no
Step Temp E_pair E_mol TotEng Press 
   31424  0.076518094   -7.3089333            0   -7.1946045  -0.73570757 
   31456  0.082102629   -7.3173054            0   -7.1946325  -0.77363841 
Loop time of 0.014446 on 1 procs for 32 steps with 256 atoms
run 32 pre no post no
Step Temp E_pair E_mol TotEng Press 
   31456  0.082102629   -7.3173054            0   -7.1946325  -0.77363841 
   31488  0.084801094   -7.3213506            0   -7.1946459  -0.79530905 
Loop time of 0.014344 on 1 procs for 32 steps with 256 atoms
run 32 pre no post no
Step Temp E_pair E_mol TotEng Press 
   31488  0.084801094   -7.3213506            0   -7.1946459  -0.79530905 
   31520  0.083254949   -7.3190276            0    -7.194633   -0.7878112 
Loop time of 0.0143511 on 1 procs for 32 steps with 256 atoms
run 32 pre no post no
Step Temp E_pair E_mol TotEng Press 
   31520  0.083254949   -7.3190276            0    -7.194633   -0.7878112 
   31552   0.08477616   -7.3213136            0   -7.1946461  -0.79700604 
Loop time of 0.0143118 on 1 procs for 32 steps with 256 atoms
run 32 pre no post no
Step Temp E_pair E_mol TotEng Press 
   31552   0.08477616   -7.3213136            0   -7.1946461  -0.79700604 
   31584  0.083254751   -7.3190221            0   -7.1946278  -0.78412918 
Loop time of 0.0143189 on 1 procs for 32 steps with 256 atoms
run 32 pre no post no
Step Temp E_pair E_mol TotEng Press 
   31584  0.083254751   -7.3190221            0   -7.1946278  -0.78412918 
   31616  0.080948905   -7.3155676            0   -7.1946186  -0.75972858 
Loop time of 0.0143092 on 1 procs for 32 steps with 256 atoms
run 32 pre no post no
Step Temp E_pair E_mol TotEng Press 
   31616  0.080948905   -7.3155676            0   -7.1946186  -0.75972858 
   31648   0.08453625   -7.3209284            0   -7.1946194  -0.80066541 
Loop time of 0.0143161 on 1 procs for 32 steps with 256 atoms
run 32 pre no post no
Step Temp E_pair E_mol TotEng Press 
   31648   0.08453625   -7.3209284            0   -7.1946194  -0.80066541 
   31680  0.090664434   -7.3301217            0   -7.1946563  -0.84379972 
Loop time of 0.0143192 on 1 procs for 32 steps with 256 atoms
run 32 pre no post no
Step Temp E_pair E_mol TotEng Press 
   31680  0.090664434   -7.3301217            0   -7.1946563  -0.84379972 
   31712  0.086985111   -7.3246309            0   -7.1946629  -0.81476466 
Loop time of 0.014328 on 1 procs for 32 steps with 256 atoms
run 32 pre no post no
Step Temp E_pair E_mol TotEng Press 
   31712  0.086985111   -7.3246309            0   -7.1946629  -0.81476466 
   31744  0.086576735   -7.3239991            0   -7.1946413  -0.81426312 
Loop time of 0.014298 on 1 procs for 32 steps with 256 atoms
run 32 pre no post no
Step Temp E_pair E_mol TotEng Press 
   31744  0.086576735   -7.3239991            0   -7.1946413  -0.81426312 
   31776  0.081307077   -7.3161136            0   -7.1946294  -0.77052001 
Loop time of 0.014329 on 1 procs for 32 steps with 256 atoms
run 32 pre no post no
Step Temp E_pair E_mol TotEng Press 
   31776  0.081307077   -7.3161136            0   -7.1946294  -0.77052001 
   31808  0.086163377   -7.3233915            0   -7.1946513    -0.803194 
Loop time of 0.0142839 on 1 procs for 32 steps with 256 atoms
run 32 pre no post no
Step Temp E_pair E_mol TotEng Press 
   31808  0.086163377   -7.3233915            0   -7.1946513    -0.803194 
   31840  0.080096028   -7.3143074            0   -7.1946327  -0.75137833 
Loop time of 0.0143669 on 1 procs for 32 steps with 256 atoms
run 32 pre no post no
Step Temp E_pair E_mol TotEng Press 
   31840  0.080096028   -7.3143074            0   -7.1946327  -0.75137833 
   31872  0.086208442   -7.3234435            0   -7.1946359  -0.81192591 
Loop time of 0.014328 on 1 procs for 32 steps with 256 atoms
run 32 pre no post no
Step Temp E_pair E_mol TotEng Press 
   31872  0.086208442   -7.3234435            0   -7.1946359  -0.81192591 
   31904  0.084704016   -7.3211832            0   -7.1946235  -0.79593397 
Loop time of 0.014313 on 1 procs for 32 steps with 256 atoms
run 32 pre no post no
Step Temp E_pair E_mol TotEng Press 
   31904  0.084704016   -7.3211832            0   -7.1946235  -0.79593397 
   31936  0.082328918   -7.3176208            0   -7.1946099  -0.77401222 
Loop time of 0.014329 on 1 procs for 32 steps with 256 atoms
run 32 pre no post no
Step Temp E_pair E_mol TotEng Press 
   31936  0.082328918   -7.3176208            0   -7.1946099  -0.77401222 
   31968  0.085610403   -7.3225327            0   -7.1946187  -0.80115984 
Loop time of 0.014348 on 1 procs for 32 steps with 256 atoms
run 32 pre no post no
Step Temp E_pair E_mol TotEng Press 
   31968  0.085610403   -7.3225327            0   -7.1946187  -0.80115984 
   32000  0.085861078   -7.3228908            0   -7.1946023  -0.80823793 
Loop time of 0.0143199 on 1 procs for 32 steps with 256 atoms
run 32 pre no post no
Step Temp E_pair E_mol TotEng Press 
   32000  0.085861078   -7.3228908            0   -7.1946023  -0.80823793 
   32032  0.085094529   -7.3217684            0   -7.1946252  -0.80151479 
Loop time of 0.0143251 on 1 procs for 32 steps with 256 atoms
run 32 pre no post no
Step Temp E_pair E_mol TotEng Press 
   32032  0.085094529   -7.3217684            0   -7.1946252  -0.80151479 
   32064  0.079377958   -7.3132125            0   -7.1946107   -0.7511746 
Loop time of 0.0142899 on 1 procs for 32 steps with 256 atoms
run 32 pre no post no
Step Temp E_pair E_mol TotEng Press 
   32064  0.079377958   -7.3132125            0   -7.1946107   -0.7511746 
   32096  0.083853578   -7.3198997            0   -7.1946106  -0.79493158 
Loop time of 0.014344 on 1 procs for 32 steps with 256 atoms
run 32 pre no post no
Step Temp E_pair E_mol TotEng Press 
   32096  0.083853578   -7.3198997            0   -7.1946106  -0.79493158 
   32128  0.077310614   -7.3101006            0   -7.1945877  -0.73846839 
Loop time of 0.0143251 on 1 procs for 32 steps with 256 atoms
run 32 pre no post no
Step Temp E_pair E_mol TotEng Press 
   32128  0.077310614   -7.3101006            0   -7.1945877  -0.73846839 
   32160  0.084428748   -7.3207616            0   -7.1946132  -0.79390001 
Loop time of 0.014307 on 1 procs for 32 steps with 256 atoms
run 32 pre no post no
Step Temp E_pair E_mol TotEng Press 
   32160  0.084428748   -7.3207616            0   -7.1946132  -0.79390001 
   32192  0.083367234   -7.3191696            0   -7.1946072  -0.78250536 
Loop time of 0.014307 on 1 procs for 32 steps with 256 atoms
run 32 pre no post no
Step Temp E_pair E_mol TotEng Press 
   32192  0.083367234   -7.3191696            0   -7.1946072  -0.78250536 
   32224  0.082017197   -7.3171448            0   -7.1945995  -0.77568712 
Loop time of 0.014354 on 1 procs for 32 steps with 256 atoms
run 32 pre no post no
Step Temp E_pair E_mol TotEng Press 
   32224  0.082017197   -7.3171448            0   -7.1945995  -0.77568712 
   32256  0.082431725   -7.3177516            0    -7.194587  -0.77930333 
Loop time of 0.014339 on 1 procs for 32 steps with 256 atoms
run 32 pre no post no
Step Temp E_pair E_mol TotEng Press 
   32256  0.082431725   -7.3177516            0    -7.194587  -0.77930333 
   32288  0.078519168   -7.3119021            0   -7.1945834  -0.74046282 
Loop time of 0.014322 on 1 procs for 32 steps with 256 atoms
run 32 pre no post no
Step Temp E_pair E_mol TotEng Press 
   32288  0.078519168   -7.3119021            0   -7.1945834  -0.74046282 
   32320  0.083417578   -7.3192309            0   -7.1945933  -0.78967418 
Loop time of 0.014323 on 1 procs for 32 steps with 256 atoms
run 32 pre no post no
Step Temp E_pair E_mol TotEng Press 
   32320  0.083417578   -7.3192309            0   -7.1945933  -0.78967418 
   32352  0.082224211   -7.3174503            0   -7.1945957  -0.77334981 
Loop time of 0.0143602 on 1 procs for 32 steps with 256 atoms
run 32 pre no post no
Step Temp E_pair E_mol TotEng Press 
   32352  0.082224211   -7.3174503            0   -7.1945957  -0.77334981 
   32384  0.081547336   -7.3164167            0   -7.1945735  -0.76822303 
Loop time of 0.0143409 on 1 procs for 32 steps with 256 atoms
run 32 pre no post no
Step Temp E_pair E_mol TotEng Press 
   32384  0.081547336   -7.3164167            0   -7.1945735  -0.76822303 
   32416  0.079094271   -7.3127439            0   -7.1945659  -0.74703043 
Loop time of 0.0143111 on 1 procs for 32 steps with 256 atoms
run 32 pre no post no
Step Temp E_pair E_mol TotEng Press 
   32416  0.079094271   -7.3127439            0   -7.1945659  -0.74703043 
   32448  0.082948959   -7.3185176            0   -7.1945802  -0.78760619 
Loop time of 0.0143511 on 1 procs for 32 steps with 256 atoms
run 32 pre no post no
Step Temp E_pair E_mol TotEng Press 
   32448  0.082948959   -7.3185176            0   -7.1945802  -0.78760619 
   32480  0.086936356   -7.3244932            0   -7.1945981  -0.80950182 
Loop time of 0.014318 on 1 procs for 32 steps with 256 atoms
run 32 pre no post no
Step Temp E_pair E_mol TotEng Press 
   32480  0.086936356   -7.3244932            0   -7.1945981  -0.80950182 
   32512  0.081341741   -7.3161257            0   -7.1945897  -0.76954584 
Loop time of 0.0143371 on 1 procs for 32 steps with 256 atoms
run 32 pre no post no
Step Temp E_pair E_mol TotEng Press 
   32512  0.081341741   -7.3161257            0   -7.1945897  -0.76954584 
   32544  0.083144382   -7.3188272            0   -7.1945978  -0.78421693 
Loop time of 0.0143099 on 1 procs for 32 steps with 256 atoms
run 32 pre no post no
Step Temp E_pair E_mol TotEng Press 
   32544  0.083144382   -7.3188272            0   -7.1945978  -0.78421693 
   32576  0.083443641   -7.3192734            0   -7.1945969  -0.78930638 
Loop time of 0.014312 on 1 procs for 32 steps with 256 atoms
run 32 pre no post no
Step Temp E_pair E_mol TotEng Press 
   32576  0.083443641   -7.3192734            0   -7.1945969  -0.78930638 
   32608  0.086084752   -7.3232324            0   -7.1946097  -0.80760346 
Loop time of 0.0143239 on 1 procs for 32 steps with 256 atoms
run 32 pre no post no
Step Temp E_pair E_mol TotEng Press 
   32608  0.086084752   -7.3232324            0   -7.1946097  -0.80760346 
   32640  0.083779851   -7.3197953            0   -7.1946164   -0.7908604 
Loop time of 0.0143399 on 1 procs for 32 steps with 256 atoms
run 32 pre no post no
Step Temp E_pair E_mol TotEng Press 
   32640  0.083779851   -7.3197953            0   -7.1946164   -0.7908604 
   32672  0.083710469   -7.3196854            0   -7.1946102  -0.79329538 
Loop time of 0.014329 on 1 procs for 32 steps with 256 atoms
run 32 pre no post no
Step Temp E_pair E_mol TotEng Press 
   32672  0.083710469   -7.3196854            0   -7.1946102  -0.79329538 
   32704  0.084383589   -7.3206946            0   -7.1946136  -0.79157936 
Loop time of 0.014338 on 1 procs for 32 steps with 256 atoms
run 32 pre no post no
Step Temp E_pair E_mol TotEng Press 
   32704  0.084383589   -7.3206946            0   -7.1946136  -0.79157936 
   32736  0.082317994   -7.3176022            0   -7.1946075  -0.77902001 
Loop time of 0.0143049 on 1 procs for 32 steps with 256 atoms
run 32 pre no post no
Step Temp E_pair E_mol TotEng Press 
   32736  0.082317994   -7.3176022            0   -7.1946075  -0.77902001 
   32768  0.077102011   -7.3097919            0   -7.1945907  -0.73575365 
Loop time of 0.0143249 on 1 procs for 32 steps with 256 atoms
